ITEM: TIMESTEP
0
ITEM: NUMBER OF ATOMS
2047
ITEM: BOX BOUNDS pp pp pp
-2.2234584417148803e+01 2.2234584417148803e+01
-1.2836000000000000e+01 1.2836000000000000e+01
-2.0845664000000003e+01 2.0845664000000003e+01
ITEM: ATOMS id type xs ys zs c_csym c_eng 
1 1 7.04271e-07 0 0 10.2974 -1.66205 
2 1 0.0625007 0.0625 0 10.2974 -1.66205 
3 1 0.041666 0 0.0625 10.2974 -1.66205 
4 1 7.04271e-07 0.125 0 10.2974 -1.66205 
5 1 0.041666 0.125 0.0625 10.2974 -1.66205 
6 1 0.104166 0.0625 0.0625 10.2974 -1.66205 
7 1 0.125001 0 0 10.2974 -1.66205 
8 1 0.187501 0.0625 0 10.2974 -1.66205 
9 1 0.166666 0 0.0625 10.2974 -1.66205 
10 1 0.125001 0.125 0 10.2974 -1.66205 
11 1 0.166666 0.125 0.0625 10.2974 -1.66205 
12 1 0.229166 0.0625 0.0625 10.2974 -1.66205 
13 1 0.250001 0 0 10.2974 -1.66205 
14 1 0.291666 0 0.0625 10.2974 -1.66205 
15 1 0.250001 0.125 0 10.2974 -1.66205 
16 1 0.291666 0.125 0.0625 10.2974 -1.66205 
17 1 0.312501 0.0625 0 10.2974 -1.66205 
18 1 0.354166 0.0625 0.0625 10.2974 -1.66205 
19 1 0.375001 0 0 10.2974 -1.66205 
20 1 0.375001 0.125 0 10.2974 -1.66205 
21 1 0.437501 0.0625 0 10.2974 -1.66205 
22 1 0.416666 0 0.0625 10.2974 -1.66205 
23 1 0.479166 0.0625 0.0625 10.2974 -1.66205 
24 1 0.416666 0.125 0.0625 10.2974 -1.66205 
25 1 0.500001 0 0 10.2974 -1.66205 
26 1 0.562501 0.0625 0 10.2974 -1.66205 
27 1 0.541666 0 0.0625 10.2974 -1.66205 
28 1 0.500001 0.125 0 10.2974 -1.66205 
29 1 0.541666 0.125 0.0625 10.2974 -1.66205 
30 1 0.604166 0.0625 0.0625 10.2974 -1.66205 
31 1 0.625001 0 0 10.2974 -1.66205 
32 1 0.687501 0.0625 0 10.2974 -1.66205 
33 1 0.666666 0 0.0625 10.2974 -1.66205 
34 1 0.625001 0.125 0 10.2974 -1.66205 
35 1 0.666666 0.125 0.0625 10.2974 -1.66205 
36 1 0.729166 0.0625 0.0625 10.2974 -1.66205 
37 1 0.750001 0 0 10.2974 -1.66205 
38 1 0.791666 0 0.0625 10.2974 -1.66205 
39 1 0.750001 0.125 0 10.2974 -1.66205 
40 1 0.791666 0.125 0.0625 10.2974 -1.66205 
41 1 0.812501 0.0625 0 10.2974 -1.66205 
42 1 0.854166 0.0625 0.0625 10.2974 -1.66205 
43 1 0.875001 0 0 10.2974 -1.66205 
44 1 0.875001 0.125 0 10.2974 -1.66205 
45 1 0.937501 0.0625 0 10.2974 -1.66205 
46 1 0.916666 0 0.0625 10.2974 -1.66205 
47 1 0.979166 0.0625 0.0625 10.2974 -1.66205 
48 1 0.916666 0.125 0.0625 10.2974 -1.66205 
49 1 0.0625007 0.1875 0 10.2974 -1.66205 
50 1 7.04271e-07 0.25 0 10.2974 -1.66205 
51 1 0.0625007 0.3125 0 10.2974 -1.66205 
52 1 0.041666 0.25 0.0625 10.2974 -1.66205 
53 1 0.104166 0.1875 0.0625 10.2974 -1.66205 
54 1 0.187501 0.1875 0 10.2974 -1.66205 
55 1 0.104166 0.3125 0.0625 10.2974 -1.66205 
56 1 0.125001 0.25 0 10.2974 -1.66205 
57 1 0.187501 0.3125 0 10.2974 -1.66205 
58 1 0.166666 0.25 0.0625 10.2974 -1.66205 
59 1 0.229166 0.1875 0.0625 10.2974 -1.66205 
60 1 0.229166 0.3125 0.0625 10.2974 -1.66205 
61 1 0.250001 0.25 0 10.2974 -1.66205 
62 1 0.291666 0.25 0.0625 10.2974 -1.66205 
63 1 0.312501 0.1875 0 10.2974 -1.66205 
64 1 0.354166 0.1875 0.0625 10.2974 -1.66205 
65 1 0.312501 0.3125 0 10.2974 -1.66205 
66 1 0.354166 0.3125 0.0625 10.2974 -1.66205 
67 1 0.375001 0.25 0 10.2974 -1.66205 
68 1 0.437501 0.1875 0 10.2974 -1.66205 
69 1 0.479166 0.1875 0.0625 10.2974 -1.66205 
70 1 0.437501 0.3125 0 10.2974 -1.66205 
71 1 0.416666 0.25 0.0625 10.2974 -1.66205 
72 1 0.479166 0.3125 0.0625 10.2974 -1.66205 
73 1 0.562501 0.1875 0 10.2974 -1.66205 
74 1 0.500001 0.25 0 10.2974 -1.66205 
75 1 0.562501 0.3125 0 10.2974 -1.66205 
76 1 0.541666 0.25 0.0625 10.2974 -1.66205 
77 1 0.604166 0.1875 0.0625 10.2974 -1.66205 
78 1 0.687501 0.1875 0 10.2974 -1.66205 
79 1 0.604166 0.3125 0.0625 10.2974 -1.66205 
80 1 0.625001 0.25 0 10.2974 -1.66205 
81 1 0.687501 0.3125 0 10.2974 -1.66205 
82 1 0.666666 0.25 0.0625 10.2974 -1.66205 
83 1 0.729166 0.1875 0.0625 10.2974 -1.66205 
84 1 0.729166 0.3125 0.0625 10.2974 -1.66205 
85 1 0.750001 0.25 0 10.2974 -1.66205 
86 1 0.791666 0.25 0.0625 10.2974 -1.66205 
87 1 0.812501 0.1875 0 10.2974 -1.66205 
88 1 0.854166 0.1875 0.0625 10.2974 -1.66205 
89 1 0.812501 0.3125 0 10.2974 -1.66205 
90 1 0.854166 0.3125 0.0625 10.2974 -1.66205 
91 1 0.875001 0.25 0 10.2974 -1.66205 
92 1 0.937501 0.1875 0 10.2974 -1.66205 
93 1 0.979166 0.1875 0.0625 10.2974 -1.66205 
94 1 0.937501 0.3125 0 10.2974 -1.66205 
95 1 0.916666 0.25 0.0625 10.2974 -1.66205 
96 1 0.979166 0.3125 0.0625 10.2974 -1.66205 
97 1 7.04271e-07 0.375 0 10.2974 -1.66205 
98 1 0.0625007 0.4375 0 10.2974 -1.66205 
99 1 0.041666 0.375 0.0625 10.2974 -1.66205 
100 1 0.104166 0.4375 0.0625 10.2974 -1.66205 
101 1 0.125001 0.375 0 10.2974 -1.66205 
102 1 0.187501 0.4375 0 10.2974 -1.66205 
103 1 0.166666 0.375 0.0625 10.2974 -1.66205 
104 1 0.229166 0.4375 0.0625 10.2974 -1.66205 
105 1 0.250001 0.375 0 10.2974 -1.66205 
106 1 0.291666 0.375 0.0625 10.2974 -1.66205 
107 1 0.312501 0.4375 0 10.2974 -1.66205 
108 1 0.354166 0.4375 0.0625 10.2974 -1.66205 
109 1 0.375001 0.375 0 10.2974 -1.66205 
110 1 0.437501 0.4375 0 10.2974 -1.66205 
111 1 0.416666 0.375 0.0625 10.2974 -1.66205 
112 1 0.479166 0.4375 0.0625 10.2974 -1.66205 
113 1 0.500001 0.375 0 10.2974 -1.66205 
114 1 0.562501 0.4375 0 10.2974 -1.66205 
115 1 0.541666 0.375 0.0625 10.2974 -1.66205 
116 1 0.604166 0.4375 0.0625 10.2974 -1.66205 
117 1 0.625001 0.375 0 10.2974 -1.66205 
118 1 0.687501 0.4375 0 10.2974 -1.66205 
119 1 0.666666 0.375 0.0625 10.2974 -1.66205 
120 1 0.729166 0.4375 0.0625 10.2974 -1.66205 
121 1 0.750001 0.375 0 10.2974 -1.66205 
122 1 0.791666 0.375 0.0625 10.2974 -1.66205 
123 1 0.812501 0.4375 0 10.2974 -1.66205 
124 1 0.854166 0.4375 0.0625 10.2974 -1.66205 
125 1 0.875001 0.375 0 10.2974 -1.66205 
126 1 0.937501 0.4375 0 10.2974 -1.66205 
127 1 0.916666 0.375 0.0625 10.2974 -1.66205 
128 1 0.979166 0.4375 0.0625 10.2974 -1.66205 
129 1 7.04271e-07 0.5 0 10.2974 -1.66205 
130 1 0.0625007 0.5625 0 10.2974 -1.66205 
131 1 0.041666 0.5 0.0625 10.2974 -1.66205 
132 1 7.04271e-07 0.625 0 10.2974 -1.66205 
133 1 0.041666 0.625 0.0625 10.2974 -1.66205 
134 1 0.104166 0.5625 0.0625 10.2974 -1.66205 
135 1 0.125001 0.5 0 10.2974 -1.66205 
136 1 0.187501 0.5625 0 10.2974 -1.66205 
137 1 0.166666 0.5 0.0625 10.2974 -1.66205 
138 1 0.125001 0.625 0 10.2974 -1.66205 
139 1 0.166666 0.625 0.0625 10.2974 -1.66205 
140 1 0.229166 0.5625 0.0625 10.2974 -1.66205 
141 1 0.250001 0.5 0 10.2974 -1.66205 
142 1 0.291666 0.5 0.0625 10.2974 -1.66205 
143 1 0.250001 0.625 0 10.2974 -1.66205 
144 1 0.291666 0.625 0.0625 10.2974 -1.66205 
145 1 0.312501 0.5625 0 10.2974 -1.66205 
146 1 0.354166 0.5625 0.0625 10.2974 -1.66205 
147 1 0.375001 0.5 0 10.2974 -1.66205 
148 1 0.375001 0.625 0 10.2974 -1.66205 
149 1 0.437501 0.5625 0 10.2974 -1.66205 
150 1 0.416666 0.5 0.0625 10.2974 -1.66205 
151 1 0.479166 0.5625 0.0625 10.2974 -1.66205 
152 1 0.416666 0.625 0.0625 10.2974 -1.66205 
153 1 0.500001 0.5 0 10.2974 -1.66205 
154 1 0.562501 0.5625 0 10.2974 -1.66205 
155 1 0.541666 0.5 0.0625 10.2974 -1.66205 
156 1 0.500001 0.625 0 10.2974 -1.66205 
157 1 0.541666 0.625 0.0625 10.2974 -1.66205 
158 1 0.604166 0.5625 0.0625 10.2974 -1.66205 
159 1 0.625001 0.5 0 10.2974 -1.66205 
160 1 0.687501 0.5625 0 10.2974 -1.66205 
161 1 0.666666 0.5 0.0625 10.2974 -1.66205 
162 1 0.625001 0.625 0 10.2974 -1.66205 
163 1 0.666666 0.625 0.0625 10.2974 -1.66205 
164 1 0.729166 0.5625 0.0625 10.2974 -1.66205 
165 1 0.750001 0.5 0 10.2974 -1.66205 
166 1 0.791666 0.5 0.0625 10.2974 -1.66205 
167 1 0.750001 0.625 0 10.2974 -1.66205 
168 1 0.791666 0.625 0.0625 10.2974 -1.66205 
169 1 0.812501 0.5625 0 10.2974 -1.66205 
170 1 0.854166 0.5625 0.0625 10.2974 -1.66205 
171 1 0.875001 0.5 0 10.2974 -1.66205 
172 1 0.875001 0.625 0 10.2974 -1.66205 
173 1 0.937501 0.5625 0 10.2974 -1.66205 
174 1 0.916666 0.5 0.0625 10.2974 -1.66205 
175 1 0.979166 0.5625 0.0625 10.2974 -1.66205 
176 1 0.916666 0.625 0.0625 10.2974 -1.66205 
177 1 0.0625007 0.6875 0 10.2974 -1.66205 
178 1 7.04271e-07 0.75 0 10.2974 -1.66205 
179 1 0.0625007 0.8125 0 10.2974 -1.66205 
180 1 0.041666 0.75 0.0625 10.2974 -1.66205 
181 1 0.104166 0.6875 0.0625 10.2974 -1.66205 
182 1 0.187501 0.6875 0 10.2974 -1.66205 
183 1 0.104166 0.8125 0.0625 10.2974 -1.66205 
184 1 0.125001 0.75 0 10.2974 -1.66205 
185 1 0.187501 0.8125 0 10.2974 -1.66205 
186 1 0.166666 0.75 0.0625 10.2974 -1.66205 
187 1 0.229166 0.6875 0.0625 10.2974 -1.66205 
188 1 0.229166 0.8125 0.0625 10.2974 -1.66205 
189 1 0.250001 0.75 0 10.2974 -1.66205 
190 1 0.291666 0.75 0.0625 10.2974 -1.66205 
191 1 0.312501 0.6875 0 10.2974 -1.66205 
192 1 0.354166 0.6875 0.0625 10.2974 -1.66205 
193 1 0.312501 0.8125 0 10.2974 -1.66205 
194 1 0.354166 0.8125 0.0625 10.2974 -1.66205 
195 1 0.375001 0.75 0 10.2974 -1.66205 
196 1 0.437501 0.6875 0 10.2974 -1.66205 
197 1 0.479166 0.6875 0.0625 10.2974 -1.66205 
198 1 0.437501 0.8125 0 10.2974 -1.66205 
199 1 0.416666 0.75 0.0625 10.2974 -1.66205 
200 1 0.479166 0.8125 0.0625 10.2974 -1.66205 
201 1 0.562501 0.6875 0 10.2974 -1.66205 
202 1 0.500001 0.75 0 10.2974 -1.66205 
203 1 0.562501 0.8125 0 10.2974 -1.66205 
204 1 0.541666 0.75 0.0625 10.2974 -1.66205 
205 1 0.604166 0.6875 0.0625 10.2974 -1.66205 
206 1 0.687501 0.6875 0 10.2974 -1.66205 
207 1 0.604166 0.8125 0.0625 10.2974 -1.66205 
208 1 0.625001 0.75 0 10.2974 -1.66205 
209 1 0.687501 0.8125 0 10.2974 -1.66205 
210 1 0.666666 0.75 0.0625 10.2974 -1.66205 
211 1 0.729166 0.6875 0.0625 10.2974 -1.66205 
212 1 0.729166 0.8125 0.0625 10.2974 -1.66205 
213 1 0.750001 0.75 0 10.2974 -1.66205 
214 1 0.791666 0.75 0.0625 10.2974 -1.66205 
215 1 0.812501 0.6875 0 10.2974 -1.66205 
216 1 0.854166 0.6875 0.0625 10.2974 -1.66205 
217 1 0.812501 0.8125 0 10.2974 -1.66205 
218 1 0.854166 0.8125 0.0625 10.2974 -1.66205 
219 1 0.875001 0.75 0 10.2974 -1.66205 
220 1 0.937501 0.6875 0 10.2974 -1.66205 
221 1 0.979166 0.6875 0.0625 10.2974 -1.66205 
222 1 0.937501 0.8125 0 10.2974 -1.66205 
223 1 0.916666 0.75 0.0625 10.2974 -1.66205 
224 1 0.979166 0.8125 0.0625 10.2974 -1.66205 
225 1 7.04271e-07 0.875 0 10.2974 -1.66205 
226 1 0.0625007 0.9375 0 10.2974 -1.66205 
227 1 0.041666 0.875 0.0625 10.2974 -1.66205 
228 1 0.104166 0.9375 0.0625 10.2974 -1.66205 
229 1 0.125001 0.875 0 10.2974 -1.66205 
230 1 0.187501 0.9375 0 10.2974 -1.66205 
231 1 0.166666 0.875 0.0625 10.2974 -1.66205 
232 1 0.229166 0.9375 0.0625 10.2974 -1.66205 
233 1 0.250001 0.875 0 10.2974 -1.66205 
234 1 0.291666 0.875 0.0625 10.2974 -1.66205 
235 1 0.312501 0.9375 0 10.2974 -1.66205 
236 1 0.354166 0.9375 0.0625 10.2974 -1.66205 
237 1 0.375001 0.875 0 10.2974 -1.66205 
238 1 0.437501 0.9375 0 10.2974 -1.66205 
239 1 0.416666 0.875 0.0625 10.2974 -1.66205 
240 1 0.479166 0.9375 0.0625 10.2974 -1.66205 
241 1 0.500001 0.875 0 10.2974 -1.66205 
242 1 0.562501 0.9375 0 10.2974 -1.66205 
243 1 0.541666 0.875 0.0625 10.2974 -1.66205 
244 1 0.604166 0.9375 0.0625 10.2974 -1.66205 
245 1 0.625001 0.875 0 10.2974 -1.66205 
246 1 0.687501 0.9375 0 10.2974 -1.66205 
247 1 0.666666 0.875 0.0625 10.2974 -1.66205 
248 1 0.729166 0.9375 0.0625 10.2974 -1.66205 
249 1 0.750001 0.875 0 10.2974 -1.66205 
250 1 0.791666 0.875 0.0625 10.2974 -1.66205 
251 1 0.812501 0.9375 0 10.2974 -1.66205 
252 1 0.854166 0.9375 0.0625 10.2974 -1.66205 
253 1 0.875001 0.875 0 10.2974 -1.66205 
254 1 0.937501 0.9375 0 10.2974 -1.66205 
255 1 0.916666 0.875 0.0625 10.2974 -1.66205 
256 1 0.979166 0.9375 0.0625 10.2974 -1.66205 
257 1 7.04271e-07 0 0.125 10.2974 -1.66205 
258 1 0.0625007 0.0625 0.125 10.2974 -1.66205 
259 1 0.041666 0 0.1875 10.2974 -1.66205 
260 1 7.04271e-07 0.125 0.125 10.2974 -1.66205 
261 1 0.041666 0.125 0.1875 10.2974 -1.66205 
262 1 0.104166 0.0625 0.1875 10.2974 -1.66205 
263 1 0.125001 0 0.125 10.2974 -1.66205 
264 1 0.187501 0.0625 0.125 10.2974 -1.66205 
265 1 0.166666 0 0.1875 10.2974 -1.66205 
266 1 0.125001 0.125 0.125 10.2974 -1.66205 
267 1 0.166666 0.125 0.1875 10.2974 -1.66205 
268 1 0.229166 0.0625 0.1875 10.2974 -1.66205 
269 1 0.250001 6.91943e-17 0.125 10.2974 -1.66205 
270 1 0.291666 0 0.1875 10.2974 -1.66205 
271 1 0.250001 0.125 0.125 10.2974 -1.66205 
272 1 0.291666 0.125 0.1875 10.2974 -1.66205 
273 1 0.312501 0.0625 0.125 10.2974 -1.66205 
274 1 0.354166 0.0625 0.1875 10.2974 -1.66205 
275 1 0.375001 0 0.125 10.2974 -1.66205 
276 1 0.375001 0.125 0.125 10.2974 -1.66205 
277 1 0.437501 0.0625 0.125 10.2974 -1.66205 
278 1 0.416666 0 0.1875 10.2974 -1.66205 
279 1 0.479166 0.0625 0.1875 10.2974 -1.66205 
280 1 0.416666 0.125 0.1875 10.2974 -1.66205 
281 1 0.500001 0 0.125 10.2974 -1.66205 
282 1 0.562501 0.0625 0.125 10.2974 -1.66205 
283 1 0.541666 0 0.1875 10.2974 -1.66205 
284 1 0.500001 0.125 0.125 10.2974 -1.66205 
285 1 0.541666 0.125 0.1875 10.2974 -1.66205 
286 1 0.604166 0.0625 0.1875 10.2974 -1.66205 
287 1 0.625001 0 0.125 10.2974 -1.66205 
288 1 0.687501 0.0625 0.125 10.2974 -1.66205 
289 1 0.666666 0 0.1875 10.2974 -1.66205 
290 1 0.625001 0.125 0.125 10.2974 -1.66205 
291 1 0.666666 0.125 0.1875 10.2974 -1.66205 
292 1 0.729166 0.0625 0.1875 10.2974 -1.66205 
293 1 0.750001 0 0.125 10.2974 -1.66205 
294 1 0.791666 0 0.1875 10.2974 -1.66205 
295 1 0.750001 0.125 0.125 10.2974 -1.66205 
296 1 0.791666 0.125 0.1875 10.2974 -1.66205 
297 1 0.812501 0.0625 0.125 10.2974 -1.66205 
298 1 0.854166 0.0625 0.1875 10.2974 -1.66205 
299 1 0.875001 0 0.125 10.2974 -1.66205 
300 1 0.875001 0.125 0.125 10.2974 -1.66205 
301 1 0.937501 0.0625 0.125 10.2974 -1.66205 
302 1 0.916666 0 0.1875 10.2974 -1.66205 
303 1 0.979166 0.0625 0.1875 10.2974 -1.66205 
304 1 0.916666 0.125 0.1875 10.2974 -1.66205 
305 1 0.0625007 0.1875 0.125 10.2974 -1.66205 
306 1 7.04271e-07 0.25 0.125 10.2974 -1.66205 
307 1 0.0625007 0.3125 0.125 10.2974 -1.66205 
308 1 0.041666 0.25 0.1875 10.2974 -1.66205 
309 1 0.104166 0.1875 0.1875 10.2974 -1.66205 
310 1 0.187501 0.1875 0.125 10.2974 -1.66205 
311 1 0.104166 0.3125 0.1875 10.2974 -1.66205 
312 1 0.125001 0.25 0.125 10.2974 -1.66205 
313 1 0.187501 0.3125 0.125 10.2974 -1.66205 
314 1 0.166666 0.25 0.1875 10.2974 -1.66205 
315 1 0.229166 0.1875 0.1875 10.2974 -1.66205 
316 1 0.229166 0.3125 0.1875 10.2974 -1.66205 
317 1 0.250001 0.25 0.125 10.2974 -1.66205 
318 1 0.291666 0.25 0.1875 10.2974 -1.66205 
319 1 0.312501 0.1875 0.125 10.2974 -1.66205 
320 1 0.354166 0.1875 0.1875 10.2974 -1.66205 
321 1 0.312501 0.3125 0.125 10.2974 -1.66205 
322 1 0.354166 0.3125 0.1875 10.2974 -1.66205 
323 1 0.375001 0.25 0.125 10.2974 -1.66205 
324 1 0.437501 0.1875 0.125 10.2974 -1.66205 
325 1 0.479166 0.1875 0.1875 10.2974 -1.66205 
326 1 0.437501 0.3125 0.125 10.2974 -1.66205 
327 1 0.416666 0.25 0.1875 10.2974 -1.66205 
328 1 0.479166 0.3125 0.1875 10.2974 -1.66205 
329 1 0.562501 0.1875 0.125 10.2974 -1.66205 
330 1 0.500001 0.25 0.125 10.2974 -1.66205 
331 1 0.562501 0.3125 0.125 10.2974 -1.66205 
332 1 0.541666 0.25 0.1875 10.2974 -1.66205 
333 1 0.604166 0.1875 0.1875 10.2974 -1.66205 
334 1 0.687501 0.1875 0.125 10.2974 -1.66205 
335 1 0.604166 0.3125 0.1875 10.2974 -1.66205 
336 1 0.625001 0.25 0.125 10.2974 -1.66205 
337 1 0.687501 0.3125 0.125 10.2974 -1.66205 
338 1 0.666666 0.25 0.1875 10.2974 -1.66205 
339 1 0.729166 0.1875 0.1875 10.2974 -1.66205 
340 1 0.729166 0.3125 0.1875 10.2974 -1.66205 
341 1 0.750001 0.25 0.125 10.2974 -1.66205 
342 1 0.791666 0.25 0.1875 10.2974 -1.66205 
343 1 0.812501 0.1875 0.125 10.2974 -1.66205 
344 1 0.854166 0.1875 0.1875 10.2974 -1.66205 
345 1 0.812501 0.3125 0.125 10.2974 -1.66205 
346 1 0.854166 0.3125 0.1875 10.2974 -1.66205 
347 1 0.875001 0.25 0.125 10.2974 -1.66205 
348 1 0.937501 0.1875 0.125 10.2974 -1.66205 
349 1 0.979166 0.1875 0.1875 10.2974 -1.66205 
350 1 0.937501 0.3125 0.125 10.2974 -1.66205 
351 1 0.916666 0.25 0.1875 10.2974 -1.66205 
352 1 0.979166 0.3125 0.1875 10.2974 -1.66205 
353 1 7.04271e-07 0.375 0.125 10.2974 -1.66205 
354 1 0.0625007 0.4375 0.125 10.2974 -1.66205 
355 1 0.041666 0.375 0.1875 10.2974 -1.66205 
356 1 0.104166 0.4375 0.1875 10.2974 -1.66205 
357 1 0.125001 0.375 0.125 10.2974 -1.66205 
358 1 0.187501 0.4375 0.125 10.2974 -1.66205 
359 1 0.166666 0.375 0.1875 10.2974 -1.66205 
360 1 0.229166 0.4375 0.1875 10.2974 -1.66205 
361 1 0.250001 0.375 0.125 10.2974 -1.66205 
362 1 0.291666 0.375 0.1875 10.2974 -1.66205 
363 1 0.312501 0.4375 0.125 10.2974 -1.66205 
364 1 0.354166 0.4375 0.1875 10.2974 -1.66205 
365 1 0.375001 0.375 0.125 10.2974 -1.66205 
366 1 0.437501 0.4375 0.125 10.2974 -1.66205 
367 1 0.416666 0.375 0.1875 10.2974 -1.66205 
368 1 0.479166 0.4375 0.1875 10.2974 -1.66205 
369 1 0.500001 0.375 0.125 10.2974 -1.66205 
370 1 0.562501 0.4375 0.125 10.2974 -1.66205 
371 1 0.541666 0.375 0.1875 10.2974 -1.66205 
372 1 0.604166 0.4375 0.1875 10.2974 -1.66205 
373 1 0.625001 0.375 0.125 10.2974 -1.66205 
374 1 0.687501 0.4375 0.125 10.2974 -1.66205 
375 1 0.666666 0.375 0.1875 10.2974 -1.66205 
376 1 0.729166 0.4375 0.1875 10.2974 -1.66205 
377 1 0.750001 0.375 0.125 10.2974 -1.66205 
378 1 0.791666 0.375 0.1875 10.2974 -1.66205 
379 1 0.812501 0.4375 0.125 10.2974 -1.66205 
380 1 0.854166 0.4375 0.1875 10.2974 -1.66205 
381 1 0.875001 0.375 0.125 10.2974 -1.66205 
382 1 0.937501 0.4375 0.125 10.2974 -1.66205 
383 1 0.916666 0.375 0.1875 10.2974 -1.66205 
384 1 0.979166 0.4375 0.1875 10.2974 -1.66205 
385 1 7.04271e-07 0.5 0.125 10.2974 -1.66205 
386 1 0.0625007 0.5625 0.125 10.2974 -1.66205 
387 1 0.041666 0.5 0.1875 10.2974 -1.66205 
388 1 7.04271e-07 0.625 0.125 10.2974 -1.66205 
389 1 0.041666 0.625 0.1875 10.2974 -1.66205 
390 1 0.104166 0.5625 0.1875 10.2974 -1.66205 
391 1 0.125001 0.5 0.125 10.2974 -1.66205 
392 1 0.187501 0.5625 0.125 10.2974 -1.66205 
393 1 0.166666 0.5 0.1875 10.2974 -1.66205 
394 1 0.125001 0.625 0.125 10.2974 -1.66205 
395 1 0.166666 0.625 0.1875 10.2974 -1.66205 
396 1 0.229166 0.5625 0.1875 10.2974 -1.66205 
397 1 0.250001 0.5 0.125 10.2974 -1.66205 
398 1 0.291666 0.5 0.1875 10.2974 -1.66205 
399 1 0.250001 0.625 0.125 10.2974 -1.66205 
400 1 0.291666 0.625 0.1875 10.2974 -1.66205 
401 1 0.312501 0.5625 0.125 10.2974 -1.66205 
402 1 0.354166 0.5625 0.1875 10.2974 -1.66205 
403 1 0.375001 0.5 0.125 10.2974 -1.66205 
404 1 0.375001 0.625 0.125 10.2974 -1.66205 
405 1 0.437501 0.5625 0.125 10.2974 -1.66205 
406 1 0.416666 0.5 0.1875 10.2974 -1.66205 
407 1 0.479166 0.5625 0.1875 10.2974 -1.66205 
408 1 0.416666 0.625 0.1875 10.2974 -1.66205 
409 1 0.500001 0.5 0.125 10.2974 -1.66205 
410 1 0.562501 0.5625 0.125 10.2974 -1.66205 
411 1 0.541666 0.5 0.1875 10.2974 -1.66205 
412 1 0.500001 0.625 0.125 10.2974 -1.66205 
413 1 0.541666 0.625 0.1875 10.2974 -1.66205 
414 1 0.604166 0.5625 0.1875 10.2974 -1.66205 
415 1 0.625001 0.5 0.125 10.2974 -1.66205 
416 1 0.687501 0.5625 0.125 10.2974 -1.66205 
417 1 0.666666 0.5 0.1875 10.2974 -1.66205 
418 1 0.625001 0.625 0.125 10.2974 -1.66205 
419 1 0.666666 0.625 0.1875 10.2974 -1.66205 
420 1 0.729166 0.5625 0.1875 10.2974 -1.66205 
421 1 0.750001 0.5 0.125 10.2974 -1.66205 
422 1 0.791666 0.5 0.1875 10.2974 -1.66205 
423 1 0.750001 0.625 0.125 10.2974 -1.66205 
424 1 0.791666 0.625 0.1875 10.2974 -1.66205 
425 1 0.812501 0.5625 0.125 10.2974 -1.66205 
426 1 0.854166 0.5625 0.1875 10.2974 -1.66205 
427 1 0.875001 0.5 0.125 10.2974 -1.66205 
428 1 0.875001 0.625 0.125 10.2974 -1.66205 
429 1 0.937501 0.5625 0.125 10.2974 -1.66205 
430 1 0.916666 0.5 0.1875 10.2974 -1.66205 
431 1 0.979166 0.5625 0.1875 10.2974 -1.66205 
432 1 0.916666 0.625 0.1875 10.2974 -1.66205 
433 1 0.0625007 0.6875 0.125 10.2974 -1.66205 
434 1 7.04271e-07 0.75 0.125 10.2974 -1.66205 
435 1 0.0625007 0.8125 0.125 10.2974 -1.66205 
436 1 0.041666 0.75 0.1875 10.2974 -1.66205 
437 1 0.104166 0.6875 0.1875 10.2974 -1.66205 
438 1 0.187501 0.6875 0.125 10.2974 -1.66205 
439 1 0.104166 0.8125 0.1875 10.2974 -1.66205 
440 1 0.125001 0.75 0.125 10.2974 -1.66205 
441 1 0.187501 0.8125 0.125 10.2974 -1.66205 
442 1 0.166666 0.75 0.1875 10.2974 -1.66205 
443 1 0.229166 0.6875 0.1875 10.2974 -1.66205 
444 1 0.229166 0.8125 0.1875 10.2974 -1.66205 
445 1 0.250001 0.75 0.125 10.2974 -1.66205 
446 1 0.291666 0.75 0.1875 10.2974 -1.66205 
447 1 0.312501 0.6875 0.125 10.2974 -1.66205 
448 1 0.354166 0.6875 0.1875 10.2974 -1.66205 
449 1 0.312501 0.8125 0.125 10.2974 -1.66205 
450 1 0.354166 0.8125 0.1875 10.2974 -1.66205 
451 1 0.375001 0.75 0.125 10.2974 -1.66205 
452 1 0.437501 0.6875 0.125 10.2974 -1.66205 
453 1 0.479166 0.6875 0.1875 10.2974 -1.66205 
454 1 0.437501 0.8125 0.125 10.2974 -1.66205 
455 1 0.416666 0.75 0.1875 10.2974 -1.66205 
456 1 0.479166 0.8125 0.1875 10.2974 -1.66205 
457 1 0.562501 0.6875 0.125 10.2974 -1.66205 
458 1 0.500001 0.75 0.125 10.2974 -1.66205 
459 1 0.562501 0.8125 0.125 10.2974 -1.66205 
460 1 0.541666 0.75 0.1875 10.2974 -1.66205 
461 1 0.604166 0.6875 0.1875 10.2974 -1.66205 
462 1 0.687501 0.6875 0.125 10.2974 -1.66205 
463 1 0.604166 0.8125 0.1875 10.2974 -1.66205 
464 1 0.625001 0.75 0.125 10.2974 -1.66205 
465 1 0.687501 0.8125 0.125 10.2974 -1.66205 
466 1 0.666666 0.75 0.1875 10.2974 -1.66205 
467 1 0.729166 0.6875 0.1875 10.2974 -1.66205 
468 1 0.729166 0.8125 0.1875 10.2974 -1.66205 
469 1 0.750001 0.75 0.125 10.2974 -1.66205 
470 1 0.791666 0.75 0.1875 10.2974 -1.66205 
471 1 0.812501 0.6875 0.125 10.2974 -1.66205 
472 1 0.854166 0.6875 0.1875 10.2974 -1.66205 
473 1 0.812501 0.8125 0.125 10.2974 -1.66205 
474 1 0.854166 0.8125 0.1875 10.2974 -1.66205 
475 1 0.875001 0.75 0.125 10.2974 -1.66205 
476 1 0.937501 0.6875 0.125 10.2974 -1.66205 
477 1 0.979166 0.6875 0.1875 10.2974 -1.66205 
478 1 0.937501 0.8125 0.125 10.2974 -1.66205 
479 1 0.916666 0.75 0.1875 10.2974 -1.66205 
480 1 0.979166 0.8125 0.1875 10.2974 -1.66205 
481 1 7.04271e-07 0.875 0.125 10.2974 -1.66205 
482 1 0.0625007 0.9375 0.125 10.2974 -1.66205 
483 1 0.041666 0.875 0.1875 10.2974 -1.66205 
484 1 0.104166 0.9375 0.1875 10.2974 -1.66205 
485 1 0.125001 0.875 0.125 10.2974 -1.66205 
486 1 0.187501 0.9375 0.125 10.2974 -1.66205 
487 1 0.166666 0.875 0.1875 10.2974 -1.66205 
488 1 0.229166 0.9375 0.1875 10.2974 -1.66205 
489 1 0.250001 0.875 0.125 10.2974 -1.66205 
490 1 0.291666 0.875 0.1875 10.2974 -1.66205 
491 1 0.312501 0.9375 0.125 10.2974 -1.66205 
492 1 0.354166 0.9375 0.1875 10.2974 -1.66205 
493 1 0.375001 0.875 0.125 10.2974 -1.66205 
494 1 0.437501 0.9375 0.125 10.2974 -1.66205 
495 1 0.416666 0.875 0.1875 10.2974 -1.66205 
496 1 0.479166 0.9375 0.1875 10.2974 -1.66205 
497 1 0.500001 0.875 0.125 10.2974 -1.66205 
498 1 0.562501 0.9375 0.125 10.2974 -1.66205 
499 1 0.541666 0.875 0.1875 10.2974 -1.66205 
500 1 0.604166 0.9375 0.1875 10.2974 -1.66205 
501 1 0.625001 0.875 0.125 10.2974 -1.66205 
502 1 0.687501 0.9375 0.125 10.2974 -1.66205 
503 1 0.666666 0.875 0.1875 10.2974 -1.66205 
504 1 0.729166 0.9375 0.1875 10.2974 -1.66205 
505 1 0.750001 0.875 0.125 10.2974 -1.66205 
506 1 0.791666 0.875 0.1875 10.2974 -1.66205 
507 1 0.812501 0.9375 0.125 10.2974 -1.66205 
508 1 0.854166 0.9375 0.1875 10.2974 -1.66205 
509 1 0.875001 0.875 0.125 10.2974 -1.66205 
510 1 0.937501 0.9375 0.125 10.2974 -1.66205 
511 1 0.916666 0.875 0.1875 10.2974 -1.66205 
512 1 0.979166 0.9375 0.1875 10.2974 -1.66205 
513 1 7.04271e-07 0 0.25 10.2974 -1.66205 
514 1 0.0625007 0.0625 0.25 10.2974 -1.66205 
515 1 7.04271e-07 0.125 0.25 10.2974 -1.66205 
516 1 0.125001 0 0.25 10.2974 -1.66205 
517 1 0.187501 0.0625 0.25 10.2974 -1.66205 
518 1 0.125001 0.125 0.25 10.2974 -1.66205 
519 1 0.250001 6.91943e-17 0.25 10.2974 -1.66205 
520 1 0.250001 0.125 0.25 10.2974 -1.66205 
521 1 0.312501 0.0625 0.25 10.2974 -1.66205 
522 1 0.375001 0 0.25 10.2974 -1.66205 
523 1 0.375001 0.125 0.25 10.2974 -1.66205 
524 1 0.437501 0.0625 0.25 10.2974 -1.66205 
525 1 0.500001 0 0.25 10.2974 -1.66205 
526 1 0.562501 0.0625 0.25 10.2974 -1.66205 
527 1 0.500001 0.125 0.25 10.2974 -1.66205 
528 1 0.625001 0 0.25 10.2974 -1.66205 
529 1 0.687501 0.0625 0.25 10.2974 -1.66205 
530 1 0.625001 0.125 0.25 10.2974 -1.66205 
531 1 0.750001 0 0.25 10.2974 -1.66205 
532 1 0.750001 0.125 0.25 10.2974 -1.66205 
533 1 0.812501 0.0625 0.25 10.2974 -1.66205 
534 1 0.875001 0 0.25 10.2974 -1.66205 
535 1 0.875001 0.125 0.25 10.2974 -1.66205 
536 1 0.937501 0.0625 0.25 10.2974 -1.66205 
537 1 0.0625007 0.1875 0.25 10.2974 -1.66205 
538 1 7.04271e-07 0.25 0.25 10.2974 -1.66205 
539 1 0.0625007 0.3125 0.25 10.2974 -1.66205 
540 1 0.187501 0.1875 0.25 10.2974 -1.66205 
541 1 0.125001 0.25 0.25 10.2974 -1.66205 
542 1 0.187501 0.3125 0.25 10.2974 -1.66205 
543 1 0.250001 0.25 0.25 10.2974 -1.66205 
544 1 0.312501 0.1875 0.25 10.2974 -1.66205 
545 1 0.312501 0.3125 0.25 10.2974 -1.66205 
546 1 0.375001 0.25 0.25 10.2974 -1.66205 
547 1 0.437501 0.1875 0.25 10.2974 -1.66205 
548 1 0.437501 0.3125 0.25 10.2974 -1.66205 
549 1 0.562501 0.1875 0.25 10.2974 -1.66205 
550 1 0.500001 0.25 0.25 10.2974 -1.66205 
551 1 0.562501 0.3125 0.25 10.2974 -1.66205 
552 1 0.687501 0.1875 0.25 10.2974 -1.66205 
553 1 0.625001 0.25 0.25 10.2974 -1.66205 
554 1 0.687501 0.3125 0.25 10.2974 -1.66205 
555 1 0.750001 0.25 0.25 10.2974 -1.66205 
556 1 0.812501 0.1875 0.25 10.2974 -1.66205 
557 1 0.812501 0.3125 0.25 10.2974 -1.66205 
558 1 0.875001 0.25 0.25 10.2974 -1.66205 
559 1 0.937501 0.1875 0.25 10.2974 -1.66205 
560 1 0.937501 0.3125 0.25 10.2974 -1.66205 
561 1 7.04271e-07 0.375 0.25 10.2974 -1.66205 
562 1 0.0625007 0.4375 0.25 10.2974 -1.66205 
563 1 0.125001 0.375 0.25 10.2974 -1.66205 
564 1 0.187501 0.4375 0.25 10.2974 -1.66205 
565 1 0.250001 0.375 0.25 10.2974 -1.66205 
566 1 0.312501 0.4375 0.25 10.2974 -1.66205 
567 1 0.375001 0.375 0.25 10.2974 -1.66205 
568 1 0.437501 0.4375 0.25 10.2974 -1.66205 
569 1 0.500001 0.375 0.25 10.2974 -1.66205 
570 1 0.562501 0.4375 0.25 10.2974 -1.66205 
571 1 0.625001 0.375 0.25 10.2974 -1.66205 
572 1 0.687501 0.4375 0.25 10.2974 -1.66205 
573 1 0.750001 0.375 0.25 10.2974 -1.66205 
574 1 0.812501 0.4375 0.25 10.2974 -1.66205 
575 1 0.875001 0.375 0.25 10.2974 -1.66205 
576 1 0.937501 0.4375 0.25 10.2974 -1.66205 
577 1 7.04271e-07 0.5 0.25 10.2974 -1.66205 
578 1 0.0625007 0.5625 0.25 10.2974 -1.66205 
579 1 7.04271e-07 0.625 0.25 10.2974 -1.66205 
580 1 0.125001 0.5 0.25 10.2974 -1.66205 
581 1 0.187501 0.5625 0.25 10.2974 -1.66205 
582 1 0.125001 0.625 0.25 10.2974 -1.66205 
583 1 0.250001 0.5 0.25 10.2974 -1.66205 
584 1 0.250001 0.625 0.25 10.2974 -1.66205 
585 1 0.312501 0.5625 0.25 10.2974 -1.66205 
586 1 0.375001 0.5 0.25 10.2974 -1.66205 
587 1 0.375001 0.625 0.25 10.2974 -1.66205 
588 1 0.437501 0.5625 0.25 10.2974 -1.66205 
589 1 0.500001 0.5 0.25 10.2974 -1.66205 
590 1 0.562501 0.5625 0.25 10.2974 -1.66205 
591 1 0.500001 0.625 0.25 10.2974 -1.66205 
592 1 0.625001 0.5 0.25 10.2974 -1.66205 
593 1 0.687501 0.5625 0.25 10.2974 -1.66205 
594 1 0.625001 0.625 0.25 10.2974 -1.66205 
595 1 0.750001 0.5 0.25 10.2974 -1.66205 
596 1 0.750001 0.625 0.25 10.2974 -1.66205 
597 1 0.812501 0.5625 0.25 10.2974 -1.66205 
598 1 0.875001 0.5 0.25 10.2974 -1.66205 
599 1 0.875001 0.625 0.25 10.2974 -1.66205 
600 1 0.937501 0.5625 0.25 10.2974 -1.66205 
601 1 0.0625007 0.6875 0.25 10.2974 -1.66205 
602 1 7.04271e-07 0.75 0.25 10.2974 -1.66205 
603 1 0.0625007 0.8125 0.25 10.2974 -1.66205 
604 1 0.187501 0.6875 0.25 10.2974 -1.66205 
605 1 0.125001 0.75 0.25 10.2974 -1.66205 
606 1 0.187501 0.8125 0.25 10.2974 -1.66205 
607 1 0.250001 0.75 0.25 10.2974 -1.66205 
608 1 0.312501 0.6875 0.25 10.2974 -1.66205 
609 1 0.312501 0.8125 0.25 10.2974 -1.66205 
610 1 0.375001 0.75 0.25 10.2974 -1.66205 
611 1 0.437501 0.6875 0.25 10.2974 -1.66205 
612 1 0.437501 0.8125 0.25 10.2974 -1.66205 
613 1 0.562501 0.6875 0.25 10.2974 -1.66205 
614 1 0.500001 0.75 0.25 10.2974 -1.66205 
615 1 0.562501 0.8125 0.25 10.2974 -1.66205 
616 1 0.687501 0.6875 0.25 10.2974 -1.66205 
617 1 0.625001 0.75 0.25 10.2974 -1.66205 
618 1 0.687501 0.8125 0.25 10.2974 -1.66205 
619 1 0.750001 0.75 0.25 10.2974 -1.66205 
620 1 0.812501 0.6875 0.25 10.2974 -1.66205 
621 1 0.812501 0.8125 0.25 10.2974 -1.66205 
622 1 0.875001 0.75 0.25 10.2974 -1.66205 
623 1 0.937501 0.6875 0.25 10.2974 -1.66205 
624 1 0.937501 0.8125 0.25 10.2974 -1.66205 
625 1 7.04271e-07 0.875 0.25 10.2974 -1.66205 
626 1 0.0625007 0.9375 0.25 10.2974 -1.66205 
627 1 0.125001 0.875 0.25 10.2974 -1.66205 
628 1 0.187501 0.9375 0.25 10.2974 -1.66205 
629 1 0.250001 0.875 0.25 10.2974 -1.66205 
630 1 0.312501 0.9375 0.25 10.2974 -1.66205 
631 1 0.375001 0.875 0.25 10.2974 -1.66205 
632 1 0.437501 0.9375 0.25 10.2974 -1.66205 
633 1 0.500001 0.875 0.25 10.2974 -1.66205 
634 1 0.562501 0.9375 0.25 10.2974 -1.66205 
635 1 0.625001 0.875 0.25 10.2974 -1.66205 
636 1 0.687501 0.9375 0.25 10.2974 -1.66205 
637 1 0.750001 0.875 0.25 10.2974 -1.66205 
638 1 0.812501 0.9375 0.25 10.2974 -1.66205 
639 1 0.875001 0.875 0.25 10.2974 -1.66205 
640 1 0.937501 0.9375 0.25 10.2974 -1.66205 
641 1 0.041666 0 0.3125 10.2974 -1.66205 
642 1 0.041666 0.125 0.3125 10.2974 -1.66205 
643 1 7.04271e-07 0 0.375 10.2974 -1.66205 
644 1 0.0625007 0.0625 0.375 10.2974 -1.66205 
645 1 7.04271e-07 0.125 0.375 10.2974 -1.66205 
646 1 0.104166 0.0625 0.3125 10.2974 -1.66205 
647 1 0.166666 0 0.3125 10.2974 -1.66205 
648 1 0.166666 0.125 0.3125 10.2974 -1.66205 
649 1 0.125001 0 0.375 10.2974 -1.66205 
650 1 0.187501 0.0625 0.375 10.2974 -1.66205 
651 1 0.125001 0.125 0.375 10.2974 -1.66205 
652 1 0.229166 0.0625 0.3125 10.2974 -1.66205 
653 1 0.291666 0 0.3125 10.2974 -1.66205 
654 1 0.291666 0.125 0.3125 10.2974 -1.66205 
655 1 0.250001 0 0.375 10.2974 -1.66205 
656 1 0.250001 0.125 0.375 10.2974 -1.66205 
657 1 0.354166 0.0625 0.3125 10.2974 -1.66205 
658 1 0.312501 0.0625 0.375 10.2974 -1.66205 
659 1 0.375001 0 0.375 10.2974 -1.66205 
660 1 0.375001 0.125 0.375 10.2974 -1.66205 
661 1 0.416666 0 0.3125 10.2974 -1.66205 
662 1 0.479166 0.0625 0.3125 10.2974 -1.66205 
663 1 0.416666 0.125 0.3125 10.2974 -1.66205 
664 1 0.437501 0.0625 0.375 10.2974 -1.66205 
665 1 0.541666 0 0.3125 10.2974 -1.66205 
666 1 0.541666 0.125 0.3125 10.2974 -1.66205 
667 1 0.500001 0 0.375 10.2974 -1.66205 
668 1 0.562501 0.0625 0.375 10.2974 -1.66205 
669 1 0.500001 0.125 0.375 10.2974 -1.66205 