LAMMPS (3 Mar 2020)
Lattice spacing in x,y,z = 3.7395 3.7395 3.7395
Created orthogonal box = (0 0 0) to (74.79 74.79 74.79)
  2 by 4 by 5 MPI processor grid
Created 16000 atoms
  create_atoms CPU = 0.020324 secs
WARNING: Using 'neigh_modify every 1 delay 0 check yes' setting during minimization (../min.cpp:190)
Neighbor list info ...
  update every 1 steps, delay 0 steps, check yes
  max neighbors/atom: 2000, page size: 100000
  master list distance cutoff = 8.3
  ghost atom cutoff = 8.3
  binsize = 4.15, bins = 19 19 19
  1 neighbor lists, perpetual/occasional/extra = 1 0 0
  (1) pair eam/fs, perpetual
      attributes: half, newton on
      pair build: half/bin/atomonly/newton
      stencil: half/bin/3d/newton
      bin: standard
Setting up sd style minimization ...
  Unit style    : metal
  Current step  : 0
Per MPI rank memory allocation (min/avg/max) = 4.516 | 4.524 | 4.527 Mbytes
Step Temp E_pair E_mol TotEng Press 
       0            0   -23787.864            0   -23787.864    -2024.406 
       5            0   -23787.864            0   -23787.864    -2024.406 
Loop time of 0.364281 on 40 procs for 5 steps with 16000 atoms

22.2% CPU use with 40 MPI tasks x no OpenMP threads

Minimization stats:
  Stopping criterion = energy tolerance
  Energy initial, next-to-last, final = 
        -23787.8644111     -23787.8644111     -23787.8644111
  Force two-norm initial, final = 1.42363e-12 1.3704e-12
  Force max component initial, final = 1.65458e-14 4.23342e-14
  Final line search alpha, max atom move = 1 4.23342e-14
  Iterations, force evaluations = 5 10

MPI task timing breakdown:
Section |  min time  |  avg time  |  max time  |%varavg| %total
---------------------------------------------------------------
Pair    | 0.07246    | 0.085314   | 0.097168   |   2.2 | 23.42
Neigh   | 0          | 0          | 0          |   0.0 |  0.00
Comm    | 0.054792   | 0.078352   | 0.11995    |   5.8 | 21.51
Output  | 0          | 0          | 0          |   0.0 |  0.00
Modify  | 0          | 0          | 0          |   0.0 |  0.00
Other   |            | 0.2006     |            |       | 55.07

Nlocal:    400 ave 450 max 350 min
Histogram: 16 0 0 0 0 8 0 0 0 16
Nghost:    1958 ave 2008 max 1908 min
Histogram: 16 0 0 0 0 8 0 0 0 16
Neighs:    17600 ave 19917 max 15146 min
Histogram: 8 8 0 0 8 0 0 0 0 16

Total # of neighbors = 704000
Ave neighs/atom = 44
Neighbor list builds = 0
Dangerous builds = 0
@@@@  (energy per atom): 3.7395 -1.48674152569392 26.1463227024375 -0.202440601446901 -1.51977831841623
Lattice spacing in x,y,z = 3.739 3.739 3.739
Created orthogonal box = (0 0 0) to (74.78 74.78 74.78)
  4 by 2 by 5 MPI processor grid
Created 16000 atoms
  create_atoms CPU = 0.0344501 secs
WARNING: Using 'neigh_modify every 1 delay 0 check yes' setting during minimization (../min.cpp:190)
Neighbor list info ...
  update every 1 steps, delay 0 steps, check yes
  max neighbors/atom: 2000, page size: 100000
  master list distance cutoff = 8.3
  ghost atom cutoff = 8.3
  binsize = 4.15, bins = 19 19 19
  1 neighbor lists, perpetual/occasional/extra = 1 0 0
  (1) pair eam/fs, perpetual
      attributes: half, newton on
      pair build: half/bin/atomonly/newton
      stencil: half/bin/3d/newton
      bin: standard
Setting up sd style minimization ...
  Unit style    : metal
  Current step  : 0
Per MPI rank memory allocation (min/avg/max) = 4.516 | 4.52 | 4.526 Mbytes
Step Temp E_pair E_mol TotEng Press 
       0            0   -23788.072            0   -23788.072   -1933.8151 
       1            0   -23788.072            0   -23788.072   -1933.8151 
Loop time of 0.0866614 on 40 procs for 1 steps with 16000 atoms

22.0% CPU use with 40 MPI tasks x no OpenMP threads

Minimization stats:
  Stopping criterion = energy tolerance
  Energy initial, next-to-last, final = 
          -23788.07167       -23788.07167       -23788.07167
  Force two-norm initial, final = 1.44995e-12 1.17075e-12
  Force max component initial, final = 2.40363e-14 1.76513e-14
  Final line search alpha, max atom move = 1 1.76513e-14
  Iterations, force evaluations = 1 2

MPI task timing breakdown:
Section |  min time  |  avg time  |  max time  |%varavg| %total
---------------------------------------------------------------
Pair    | 0.024795   | 0.031733   | 0.037901   |   1.6 | 36.62
Neigh   | 0          | 0          | 0          |   0.0 |  0.00
Comm    | 0.0080576  | 0.014241   | 0.023043   |   3.3 | 16.43
Output  | 0          | 0          | 0          |   0.0 |  0.00
Modify  | 0          | 0          | 0          |   0.0 |  0.00
Other   |            | 0.04069    |            |       | 46.95

Nlocal:    400 ave 450 max 350 min
Histogram: 8 0 0 0 0 24 0 0 0 8
Nghost:    1958 ave 2008 max 1908 min
Histogram: 8 0 0 0 0 24 0 0 0 8
Neighs:    17600 ave 19815 max 15718 min
Histogram: 8 0 0 16 0 8 0 0 0 8

Total # of neighbors = 704000
Ave neighs/atom = 44
Neighbor list builds = 0
Dangerous builds = 0
@@@@  (energy per atom): 3.739 -1.48675447937675 26.1358362095 -0.193381505123426 -1.5183002381858
Lattice spacing in x,y,z = 3.7385 3.7385 3.7385
Created orthogonal box = (0 0 0) to (74.77 74.77 74.77)
  4 by 2 by 5 MPI processor grid
Created 16000 atoms
  create_atoms CPU = 0.00763702 secs
WARNING: Using 'neigh_modify every 1 delay 0 check yes' setting during minimization (../min.cpp:190)
Neighbor list info ...
  update every 1 steps, delay 0 steps, check yes
  max neighbors/atom: 2000, page size: 100000
  master list distance cutoff = 8.3
  ghost atom cutoff = 8.3
  binsize = 4.15, bins = 19 19 19
  1 neighbor lists, perpetual/occasional/extra = 1 0 0
  (1) pair eam/fs, perpetual
      attributes: half, newton on
      pair build: half/bin/atomonly/newton
      stencil: half/bin/3d/newton
      bin: standard
Setting up sd style minimization ...
  Unit style    : metal
  Current step  : 0
Per MPI rank memory allocation (min/avg/max) = 4.516 | 4.524 | 4.527 Mbytes
Step Temp E_pair E_mol TotEng Press 
       0            0   -23788.269            0   -23788.269   -1843.0678 
       1            0   -23788.269            0   -23788.269   -1843.0678 
Loop time of 0.0809232 on 40 procs for 1 steps with 16000 atoms

22.6% CPU use with 40 MPI tasks x no OpenMP threads

Minimization stats:
  Stopping criterion = energy tolerance
  Energy initial, next-to-last, final = 
         -23788.269381      -23788.269381      -23788.269381
  Force two-norm initial, final = 1.3759e-12 1.35693e-12
  Force max component initial, final = 1.64262e-14 1.65631e-14
  Final line search alpha, max atom move = 1 1.65631e-14
  Iterations, force evaluations = 1 2

MPI task timing breakdown:
Section |  min time  |  avg time  |  max time  |%varavg| %total
---------------------------------------------------------------
Pair    | 0.010382   | 0.019225   | 0.025489   |   2.9 | 23.76
Neigh   | 0          | 0          | 0          |   0.0 |  0.00
Comm    | 0.013423   | 0.025714   | 0.03354    |   3.1 | 31.78
Output  | 0          | 0          | 0          |   0.0 |  0.00
Modify  | 0          | 0          | 0          |   0.0 |  0.00
Other   |            | 0.03598    |            |       | 44.47

Nlocal:    400 ave 500 max 320 min
Histogram: 4 8 2 4 8 0 2 8 0 4
Nghost:    1958 ave 2038 max 1858 min
Histogram: 4 0 8 2 0 8 4 2 8 4
Neighs:    17600 ave 22327 max 14048 min
Histogram: 4 6 4 9 3 2 5 3 0 4

Total # of neighbors = 704000
Ave neighs/atom = 44
Neighbor list builds = 0
Dangerous builds = 0
@@@@  (energy per atom): 3.7385 -1.48676683631091 26.1253525208125 -0.184306775710238 -1.51682020113935
Lattice spacing in x,y,z = 3.738 3.738 3.738
Created orthogonal box = (0 0 0) to (74.76 74.76 74.76)
  2 by 4 by 5 MPI processor grid
Created 16000 atoms
  create_atoms CPU = 0.0415709 secs
WARNING: Using 'neigh_modify every 1 delay 0 check yes' setting during minimization (../min.cpp:190)
Neighbor list info ...
  update every 1 steps, delay 0 steps, check yes
  max neighbors/atom: 2000, page size: 100000
  master list distance cutoff = 8.3
  ghost atom cutoff = 8.3
  binsize = 4.15, bins = 19 19 19
  1 neighbor lists, perpetual/occasional/extra = 1 0 0
  (1) pair eam/fs, perpetual
      attributes: half, newton on
      pair build: half/bin/atomonly/newton
      stencil: half/bin/3d/newton
      bin: standard
Setting up sd style minimization ...
  Unit style    : metal
  Current step  : 0
Per MPI rank memory allocation (min/avg/max) = 4.516 | 4.524 | 4.527 Mbytes
Step Temp E_pair E_mol TotEng Press 
       0            0   -23788.458            0   -23788.458   -1752.1639 
       1            0   -23788.458            0   -23788.458   -1752.1639 
Loop time of 0.0915377 on 40 procs for 1 steps with 16000 atoms

22.9% CPU use with 40 MPI tasks x no OpenMP threads

Minimization stats:
  Stopping criterion = energy tolerance
  Energy initial, next-to-last, final = 
        -23788.4575327     -23788.4575327     -23788.4575327
  Force two-norm initial, final = 4.55409e-13 4.5302e-13
  Force max component initial, final = 8.86661e-15 8.86533e-15
  Final line search alpha, max atom move = 1 8.86533e-15
  Iterations, force evaluations = 1 2

MPI task timing breakdown:
Section |  min time  |  avg time  |  max time  |%varavg| %total
---------------------------------------------------------------
Pair    | 0.009866   | 0.02064    | 0.027661   |   2.9 | 22.55
Neigh   | 0          | 0          | 0          |   0.0 |  0.00
Comm    | 0.0092738  | 0.021665   | 0.03584    |   4.3 | 23.67
Output  | 0          | 0          | 0          |   0.0 |  0.00
Modify  | 0          | 0          | 0          |   0.0 |  0.00
Other   |            | 0.04923    |            |       | 53.78

Nlocal:    400 ave 500 max 320 min
Histogram: 4 8 2 4 8 0 2 8 0 4
Nghost:    1958 ave 2038 max 1858 min
Histogram: 4 0 8 2 0 8 4 2 8 4
Neighs:    17600 ave 22114 max 14457 min
Histogram: 6 8 4 8 0 2 6 2 0 4

Total # of neighbors = 704000
Ave neighs/atom = 44
Neighbor list builds = 0
Dangerous builds = 0
@@@@  (energy per atom): 3.738 -1.48677859579105 26.114871636 -0.175216393595406 -1.51533820596675
Lattice spacing in x,y,z = 3.7375 3.7375 3.7375
Created orthogonal box = (0 0 0) to (74.75 74.75 74.75)
  2 by 4 by 5 MPI processor grid
Created 16000 atoms
  create_atoms CPU = 0.0268738 secs
WARNING: Using 'neigh_modify every 1 delay 0 check yes' setting during minimization (../min.cpp:190)
Neighbor list info ...
  update every 1 steps, delay 0 steps, check yes
  max neighbors/atom: 2000, page size: 100000
  master list distance cutoff = 8.3
  ghost atom cutoff = 8.3
  binsize = 4.15, bins = 19 19 19
  1 neighbor lists, perpetual/occasional/extra = 1 0 0
  (1) pair eam/fs, perpetual
      attributes: half, newton on
      pair build: half/bin/atomonly/newton
      stencil: half/bin/3d/newton
      bin: standard
Setting up sd style minimization ...
  Unit style    : metal
  Current step  : 0
Per MPI rank memory allocation (min/avg/max) = 4.516 | 4.52 | 4.526 Mbytes
Step Temp E_pair E_mol TotEng Press 
       0            0   -23788.636            0   -23788.636   -1661.1034 
       1            0   -23788.636            0   -23788.636   -1661.1034 
Loop time of 0.123017 on 40 procs for 1 steps with 16000 atoms

22.3% CPU use with 40 MPI tasks x no OpenMP threads

Minimization stats:
  Stopping criterion = energy tolerance
  Energy initial, next-to-last, final = 
        -23788.6361138     -23788.6361138     -23788.6361138
  Force two-norm initial, final = 1.40386e-12 1.39256e-12
  Force max component initial, final = 1.71044e-14 1.81868e-14
  Final line search alpha, max atom move = 1 1.81868e-14
  Iterations, force evaluations = 1 2

MPI task timing breakdown:
Section |  min time  |  avg time  |  max time  |%varavg| %total
---------------------------------------------------------------
Pair    | 0.0079987  | 0.017674   | 0.024597   |   2.8 | 14.37
Neigh   | 0          | 0          | 0          |   0.0 |  0.00
Comm    | 0.019542   | 0.032833   | 0.044298   |   3.5 | 26.69
Output  | 0          | 0          | 0          |   0.0 |  0.00
Modify  | 0          | 0          | 0          |   0.0 |  0.00
Other   |            | 0.07251    |            |       | 58.94

Nlocal:    400 ave 450 max 350 min
Histogram: 8 0 0 0 0 24 0 0 0 8
Nghost:    1958 ave 2008 max 1908 min
Histogram: 8 0 0 0 0 24 0 0 0 8
Neighs:    17600 ave 19917 max 15579 min
Histogram: 8 0 0 16 0 4 4 0 0 8

Total # of neighbors = 704000
Ave neighs/atom = 44
Neighbor list builds = 0
Dangerous builds = 0
@@@@  (energy per atom): 3.7375 -1.48678975711096 26.1043935546875 -0.16611034004943 -1.51385425150439
Lattice spacing in x,y,z = 3.737 3.737 3.737
Created orthogonal box = (0 0 0) to (74.74 74.74 74.74)
  4 by 2 by 5 MPI processor grid
Created 16000 atoms
  create_atoms CPU = 0.0261371 secs
WARNING: Using 'neigh_modify every 1 delay 0 check yes' setting during minimization (../min.cpp:190)
Neighbor list info ...
  update every 1 steps, delay 0 steps, check yes
  max neighbors/atom: 2000, page size: 100000
  master list distance cutoff = 8.3
  ghost atom cutoff = 8.3
  binsize = 4.15, bins = 19 19 19
  1 neighbor lists, perpetual/occasional/extra = 1 0 0
  (1) pair eam/fs, perpetual
      attributes: half, newton on
      pair build: half/bin/atomonly/newton
      stencil: half/bin/3d/newton
      bin: standard
Setting up sd style minimization ...
  Unit style    : metal
  Current step  : 0
Per MPI rank memory allocation (min/avg/max) = 4.516 | 4.524 | 4.527 Mbytes
Step Temp E_pair E_mol TotEng Press 
       0            0   -23788.805            0   -23788.805    -1569.886 
       1            0   -23788.805            0   -23788.805    -1569.886 
Loop time of 0.0995777 on 40 procs for 1 steps with 16000 atoms

22.4% CPU use with 40 MPI tasks x no OpenMP threads

Minimization stats:
  Stopping criterion = energy tolerance
  Energy initial, next-to-last, final = 
         -23788.805113      -23788.805113      -23788.805113
  Force two-norm initial, final = 1.19304e-12 1.14302e-12
  Force max component initial, final = 1.63203e-14 1.70142e-14
  Final line search alpha, max atom move = 1 1.70142e-14
  Iterations, force evaluations = 1 2

MPI task timing breakdown:
Section |  min time  |  avg time  |  max time  |%varavg| %total
---------------------------------------------------------------
Pair    | 0.017467   | 0.021625   | 0.025507   |   1.5 | 21.72
Neigh   | 0          | 0          | 0          |   0.0 |  0.00
Comm    | 0.018499   | 0.025377   | 0.037094   |   2.8 | 25.48
Output  | 0          | 0          | 0          |   0.0 |  0.00
Modify  | 0          | 0          | 0          |   0.0 |  0.00
Other   |            | 0.05258    |            |       | 52.80

Nlocal:    400 ave 500 max 320 min
Histogram: 4 8 2 4 8 0 2 8 0 4
Nghost:    1958 ave 2038 max 1858 min
Histogram: 4 0 8 2 0 8 4 2 8 4
Neighs:    17600 ave 22182 max 14256 min
Histogram: 4 8 4 8 2 2 6 2 0 4

Total # of neighbors = 704000
Ave neighs/atom = 44
Neighbor list builds = 0
Dangerous builds = 0
@@@@  (energy per atom): 3.737 -1.48680031956437 26.0939182765 -0.156988596730708 -1.51236833665508
Lattice spacing in x,y,z = 3.7365 3.7365 3.7365
Created orthogonal box = (0 0 0) to (74.73 74.73 74.73)
  2 by 4 by 5 MPI processor grid
Created 16000 atoms
  create_atoms CPU = 0.017885 secs
WARNING: Using 'neigh_modify every 1 delay 0 check yes' setting during minimization (../min.cpp:190)
Neighbor list info ...
  update every 1 steps, delay 0 steps, check yes
  max neighbors/atom: 2000, page size: 100000
  master list distance cutoff = 8.3
  ghost atom cutoff = 8.3
  binsize = 4.15, bins = 19 19 19
  1 neighbor lists, perpetual/occasional/extra = 1 0 0
  (1) pair eam/fs, perpetual
      attributes: half, newton on
      pair build: half/bin/atomonly/newton
      stencil: half/bin/3d/newton
      bin: standard
Setting up sd style minimization ...
  Unit style    : metal
  Current step  : 0
Per MPI rank memory allocation (min/avg/max) = 4.516 | 4.524 | 4.527 Mbytes
Step Temp E_pair E_mol TotEng Press 
       0            0   -23788.965            0   -23788.965   -1478.5114 
       1            0   -23788.965            0   -23788.965   -1478.5114 
Loop time of 0.0780794 on 40 procs for 1 steps with 16000 atoms

22.1% CPU use with 40 MPI tasks x no OpenMP threads

Minimization stats:
  Stopping criterion = energy tolerance
  Energy initial, next-to-last, final = 
        -23788.9645191     -23788.9645191     -23788.9645191
  Force two-norm initial, final = 1.38578e-12 1.38202e-12
  Force max component initial, final = 1.66533e-14 1.69656e-14
  Final line search alpha, max atom move = 1 1.69656e-14
  Iterations, force evaluations = 1 2

MPI task timing breakdown:
Section |  min time  |  avg time  |  max time  |%varavg| %total
---------------------------------------------------------------
Pair    | 0.008873   | 0.013453   | 0.022501   |   2.7 | 17.23
Neigh   | 0          | 0          | 0          |   0.0 |  0.00
Comm    | 0.010564   | 0.020206   | 0.029079   |   3.3 | 25.88
Output  | 0          | 0          | 0          |   0.0 |  0.00
Modify  | 0          | 0          | 0          |   0.0 |  0.00
Other   |            | 0.04442    |            |       | 56.89

Nlocal:    400 ave 450 max 350 min
Histogram: 16 0 0 0 0 8 0 0 0 16
Nghost:    1958 ave 2008 max 1908 min
Histogram: 16 0 0 0 0 8 0 0 0 16
Neighs:    17600 ave 19917 max 15146 min
Histogram: 8 8 0 0 8 0 0 0 0 16

Total # of neighbors = 704000
Ave neighs/atom = 44
Neighbor list builds = 0
Dangerous builds = 0
@@@@  (energy per atom): 3.7365 -1.48681028244436 26.0834458010625 -0.147851144378377 -1.51088046017458
Lattice spacing in x,y,z = 3.736 3.736 3.736
Created orthogonal box = (0 0 0) to (74.72 74.72 74.72)
  2 by 4 by 5 MPI processor grid
Created 16000 atoms
  create_atoms CPU = 0.00777602 secs
WARNING: Using 'neigh_modify every 1 delay 0 check yes' setting during minimization (../min.cpp:190)
Neighbor list info ...
  update every 1 steps, delay 0 steps, check yes
  max neighbors/atom: 2000, page size: 100000
  master list distance cutoff = 8.3
  ghost atom cutoff = 8.3
  binsize = 4.15, bins = 19 19 19
  1 neighbor lists, perpetual/occasional/extra = 1 0 0
  (1) pair eam/fs, perpetual
      attributes: half, newton on
      pair build: half/bin/atomonly/newton
      stencil: half/bin/3d/newton
      bin: standard
Setting up sd style minimization ...
  Unit style    : metal
  Current step  : 0
Per MPI rank memory allocation (min/avg/max) = 4.536 | 4.537 | 4.537 Mbytes
Step Temp E_pair E_mol TotEng Press 
       0            0   -23789.114            0   -23789.114   -1386.9796 
       2            0   -23789.114            0   -23789.114   -1386.9796 
Loop time of 0.156913 on 40 procs for 2 steps with 16000 atoms

22.6% CPU use with 40 MPI tasks x no OpenMP threads

Minimization stats:
  Stopping criterion = energy tolerance
  Energy initial, next-to-last, final = 
        -23789.1143207     -23789.1143207     -23789.1143207
  Force two-norm initial, final = 1.42877e-12 1.18158e-12
  Force max component initial, final = 1.70558e-14 1.6754e-14
  Final line search alpha, max atom move = 1 1.6754e-14
  Iterations, force evaluations = 2 4

MPI task timing breakdown:
Section |  min time  |  avg time  |  max time  |%varavg| %total
---------------------------------------------------------------
Pair    | 0.026015   | 0.037771   | 0.053973   |   3.4 | 24.07
Neigh   | 0          | 0          | 0          |   0.0 |  0.00
Comm    | 0.021753   | 0.035513   | 0.058153   |   4.5 | 22.63
Output  | 0          | 0          | 0          |   0.0 |  0.00
Modify  | 0          | 0          | 0          |   0.0 |  0.00
Other   |            | 0.08363    |            |       | 53.30

Nlocal:    400 ave 400 max 400 min
Histogram: 40 0 0 0 0 0 0 0 0 0
Nghost:    1958 ave 1958 max 1958 min
Histogram: 40 0 0 0 0 0 0 0 0 0
Neighs:    17600 ave 18039 max 17031 min
Histogram: 8 0 0 4 8 0 4 0 8 8

Total # of neighbors = 704000
Ave neighs/atom = 44
Neighbor list builds = 0
Dangerous builds = 0
@@@@  (energy per atom): 3.736 -1.48681964504337 26.072976128 -0.138697963828933 -1.50939062083732
Lattice spacing in x,y,z = 3.7355 3.7355 3.7355
Created orthogonal box = (0 0 0) to (74.71 74.71 74.71)
  2 by 4 by 5 MPI processor grid
Created 16000 atoms
  create_atoms CPU = 0.0100272 secs
WARNING: Using 'neigh_modify every 1 delay 0 check yes' setting during minimization (../min.cpp:190)
Neighbor list info ...
  update every 1 steps, delay 0 steps, check yes
  max neighbors/atom: 2000, page size: 100000
  master list distance cutoff = 8.3
  ghost atom cutoff = 8.3
  binsize = 4.15, bins = 19 19 19
  1 neighbor lists, perpetual/occasional/extra = 1 0 0
  (1) pair eam/fs, perpetual
      attributes: half, newton on
      pair build: half/bin/atomonly/newton
      stencil: half/bin/3d/newton
      bin: standard
Setting up sd style minimization ...
  Unit style    : metal
  Current step  : 0
Per MPI rank memory allocation (min/avg/max) = 4.516 | 4.524 | 4.527 Mbytes
Step Temp E_pair E_mol TotEng Press 
       0            0   -23789.255            0   -23789.255   -1295.2904 
       1            0   -23789.255            0   -23789.255   -1295.2904 
Loop time of 0.0991983 on 40 procs for 1 steps with 16000 atoms

22.7% CPU use with 40 MPI tasks x no OpenMP threads

Minimization stats:
  Stopping criterion = energy tolerance
  Energy initial, next-to-last, final = 
        -23789.2545065     -23789.2545065     -23789.2545065
  Force two-norm initial, final = 5.85289e-13 5.86128e-13
  Force max component initial, final = 8.96852e-15 8.9374e-15
  Final line search alpha, max atom move = 1 8.9374e-15
  Iterations, force evaluations = 1 2

MPI task timing breakdown:
Section |  min time  |  avg time  |  max time  |%varavg| %total
---------------------------------------------------------------
Pair    | 0.019978   | 0.029492   | 0.039014   |   2.0 | 29.73
Neigh   | 0          | 0          | 0          |   0.0 |  0.00
Comm    | 0.015373   | 0.026505   | 0.038703   |   3.0 | 26.72
Output  | 0          | 0          | 0          |   0.0 |  0.00
Modify  | 0          | 0          | 0          |   0.0 |  0.00
Other   |            | 0.0432     |            |       | 43.55

Nlocal:    400 ave 500 max 320 min
Histogram: 4 8 2 4 8 0 2 8 0 4
Nghost:    1958 ave 2038 max 1858 min
Histogram: 4 0 8 2 0 8 4 2 8 4
Neighs:    17600 ave 22114 max 14457 min
Histogram: 6 8 4 8 0 2 6 2 0 4

Total # of neighbors = 704000
Ave neighs/atom = 44
Neighbor list builds = 0
Dangerous builds = 0
@@@@  (energy per atom): 3.7355 -1.48682840665341 26.0625092569375 -0.129529036530569 -1.50789881752026
Lattice spacing in x,y,z = 3.735 3.735 3.735
Created orthogonal box = (0 0 0) to (74.7 74.7 74.7)
  2 by 4 by 5 MPI processor grid
Created 16000 atoms
  create_atoms CPU = 0.0454791 secs
WARNING: Using 'neigh_modify every 1 delay 0 check yes' setting during minimization (../min.cpp:190)
Neighbor list info ...
  update every 1 steps, delay 0 steps, check yes
  max neighbors/atom: 2000, page size: 100000
  master list distance cutoff = 8.3
  ghost atom cutoff = 8.3
  binsize = 4.15, bins = 18 18 18
  1 neighbor lists, perpetual/occasional/extra = 1 0 0
  (1) pair eam/fs, perpetual
      attributes: half, newton on
      pair build: half/bin/atomonly/newton
      stencil: half/bin/3d/newton
      bin: standard
Setting up sd style minimization ...
  Unit style    : metal
  Current step  : 0
Per MPI rank memory allocation (min/avg/max) = 4.518 | 4.526 | 4.528 Mbytes
Step Temp E_pair E_mol TotEng Press 
       0            0   -23789.385            0   -23789.385   -1203.4434 
       1            0   -23789.385            0   -23789.385   -1203.4434 
Loop time of 0.0981324 on 40 procs for 1 steps with 16000 atoms

22.7% CPU use with 40 MPI tasks x no OpenMP threads

Minimization stats:
  Stopping criterion = energy tolerance
  Energy initial, next-to-last, final = 
        -23789.3850651     -23789.3850651     -23789.3850651
  Force two-norm initial, final = 1.2131e-12 1.19098e-12
  Force max component initial, final = 1.69587e-14 1.71113e-14
  Final line search alpha, max atom move = 1 1.71113e-14
  Iterations, force evaluations = 1 2

MPI task timing breakdown:
Section |  min time  |  avg time  |  max time  |%varavg| %total
---------------------------------------------------------------
Pair    | 0.01512    | 0.020066   | 0.025924   |   2.5 | 20.45
Neigh   | 0          | 0          | 0          |   0.0 |  0.00
Comm    | 0.013242   | 0.02286    | 0.038363   |   3.2 | 23.29
Output  | 0          | 0          | 0          |   0.0 |  0.00
Modify  | 0          | 0          | 0          |   0.0 |  0.00
Other   |            | 0.05521    |            |       | 56.26

Nlocal:    400 ave 500 max 320 min
Histogram: 4 8 2 4 8 0 2 8 0 4
Nghost:    1958 ave 2038 max 1858 min
Histogram: 4 0 8 2 0 8 4 2 8 4
Neighs:    17600 ave 22114 max 14457 min
Histogram: 6 8 4 8 0 2 6 2 0 4

Total # of neighbors = 704000
Ave neighs/atom = 44
Neighbor list builds = 0
Dangerous builds = 0
@@@@  (energy per atom): 3.735 -1.48683656656689 26.0520451875 -0.120344343249847 -1.50640504899317
Lattice spacing in x,y,z = 3.7345 3.7345 3.7345
Created orthogonal box = (0 0 0) to (74.69 74.69 74.69)
  2 by 4 by 5 MPI processor grid
Created 16000 atoms
  create_atoms CPU = 0.0349228 secs
WARNING: Using 'neigh_modify every 1 delay 0 check yes' setting during minimization (../min.cpp:190)
Neighbor list info ...
  update every 1 steps, delay 0 steps, check yes
  max neighbors/atom: 2000, page size: 100000
  master list distance cutoff = 8.3
  ghost atom cutoff = 8.3
  binsize = 4.15, bins = 18 18 18
  1 neighbor lists, perpetual/occasional/extra = 1 0 0
  (1) pair eam/fs, perpetual
      attributes: half, newton on
      pair build: half/bin/atomonly/newton
      stencil: half/bin/3d/newton
      bin: standard
Setting up sd style minimization ...
  Unit style    : metal
  Current step  : 0
Per MPI rank memory allocation (min/avg/max) = 4.536 | 4.537 | 4.537 Mbytes
Step Temp E_pair E_mol TotEng Press 
       0            0   -23789.506            0   -23789.506   -1111.4386 
       1            0   -23789.506            0   -23789.506   -1111.4386 
Loop time of 0.0712827 on 40 procs for 1 steps with 16000 atoms

22.7% CPU use with 40 MPI tasks x no OpenMP threads

Minimization stats:
  Stopping criterion = energy tolerance
  Energy initial, next-to-last, final = 
        -23789.5059852     -23789.5059852     -23789.5059852
  Force two-norm initial, final = 8.5678e-13 8.56884e-13
  Force max component initial, final = 9.0494e-15 9.0494e-15
  Final line search alpha, max atom move = 1 9.0494e-15
  Iterations, force evaluations = 1 2

MPI task timing breakdown:
Section |  min time  |  avg time  |  max time  |%varavg| %total
---------------------------------------------------------------
Pair    | 0.0093241  | 0.015465   | 0.024261   |   3.1 | 21.70
Neigh   | 0          | 0          | 0          |   0.0 |  0.00
Comm    | 0.015805   | 0.029377   | 0.042469   |   3.5 | 41.21
Output  | 0          | 0          | 0          |   0.0 |  0.00
Modify  | 0          | 0          | 0          |   0.0 |  0.00
Other   |            | 0.02644    |            |       | 37.09

Nlocal:    400 ave 400 max 400 min
Histogram: 40 0 0 0 0 0 0 0 0 0
Nghost:    1958 ave 1958 max 1958 min
Histogram: 40 0 0 0 0 0 0 0 0 0
Neighs:    17600 ave 18072 max 17043 min
Histogram: 4 2 9 2 1 3 3 4 3 9

Total # of neighbors = 704000
Ave neighs/atom = 44
Neighbor list builds = 0
Dangerous builds = 0
@@@@  (energy per atom): 3.7345 -1.48684412407377 26.0415839193125 -0.111143864812906 -1.50490931403657
Lattice spacing in x,y,z = 3.734 3.734 3.734
Created orthogonal box = (0 0 0) to (74.68 74.68 74.68)
  4 by 2 by 5 MPI processor grid
Created 16000 atoms
  create_atoms CPU = 0.038728 secs
WARNING: Using 'neigh_modify every 1 delay 0 check yes' setting during minimization (../min.cpp:190)
Neighbor list info ...
  update every 1 steps, delay 0 steps, check yes
  max neighbors/atom: 2000, page size: 100000
  master list distance cutoff = 8.3
  ghost atom cutoff = 8.3
  binsize = 4.15, bins = 18 18 18
  1 neighbor lists, perpetual/occasional/extra = 1 0 0
  (1) pair eam/fs, perpetual
      attributes: half, newton on
      pair build: half/bin/atomonly/newton
      stencil: half/bin/3d/newton
      bin: standard
Setting up sd style minimization ...
  Unit style    : metal
  Current step  : 0
Per MPI rank memory allocation (min/avg/max) = 4.516 | 4.524 | 4.527 Mbytes
Step Temp E_pair E_mol TotEng Press 
       0            0   -23789.617            0   -23789.617   -1019.2758 
       1            0   -23789.617            0   -23789.617   -1019.2758 
Loop time of 0.119509 on 40 procs for 1 steps with 16000 atoms

22.7% CPU use with 40 MPI tasks x no OpenMP threads

Minimization stats:
  Stopping criterion = energy tolerance
  Energy initial, next-to-last, final = 
        -23789.6172554     -23789.6172554     -23789.6172554
  Force two-norm initial, final = 1.29352e-12 1.29208e-12
  Force max component initial, final = 1.67168e-14 1.67366e-14
  Final line search alpha, max atom move = 1 1.67366e-14
  Iterations, force evaluations = 1 2

MPI task timing breakdown:
Section |  min time  |  avg time  |  max time  |%varavg| %total
---------------------------------------------------------------
Pair    | 0.0082178  | 0.015271   | 0.020042   |   1.8 | 12.78
Neigh   | 0          | 0          | 0          |   0.0 |  0.00
Comm    | 0.0098312  | 0.017773   | 0.030928   |   4.4 | 14.87
Output  | 0          | 0          | 0          |   0.0 |  0.00
Modify  | 0          | 0          | 0          |   0.0 |  0.00
Other   |            | 0.08647    |            |       | 72.35

Nlocal:    400 ave 500 max 320 min
Histogram: 4 8 2 4 8 0 2 8 0 4
Nghost:    1958 ave 2038 max 1858 min
Histogram: 4 0 8 2 0 8 4 2 8 4
Neighs:    17600 ave 22150 max 14003 min
Histogram: 4 8 2 5 7 0 6 4 0 4

Total # of neighbors = 704000
Ave neighs/atom = 44
Neighbor list builds = 0
Dangerous builds = 0
@@@@  (energy per atom): 3.734 -1.48685107846539 26.031125452 -0.101927582552217 -1.503411611518
Lattice spacing in x,y,z = 3.7335 3.7335 3.7335
Created orthogonal box = (0 0 0) to (74.67 74.67 74.67)
  2 by 4 by 5 MPI processor grid
Created 16000 atoms
  create_atoms CPU = 0.0187762 secs
WARNING: Using 'neigh_modify every 1 delay 0 check yes' setting during minimization (../min.cpp:190)
Neighbor list info ...
  update every 1 steps, delay 0 steps, check yes
  max neighbors/atom: 2000, page size: 100000
  master list distance cutoff = 8.3
  ghost atom cutoff = 8.3
  binsize = 4.15, bins = 18 18 18
  1 neighbor lists, perpetual/occasional/extra = 1 0 0
  (1) pair eam/fs, perpetual
      attributes: half, newton on
      pair build: half/bin/atomonly/newton
      stencil: half/bin/3d/newton
      bin: standard
Setting up sd style minimization ...
  Unit style    : metal
  Current step  : 0
Per MPI rank memory allocation (min/avg/max) = 4.516 | 4.524 | 4.527 Mbytes
Step Temp E_pair E_mol TotEng Press 
       0            0   -23789.719            0   -23789.719   -926.95477 
       1            0   -23789.719            0   -23789.719   -926.95477 
Loop time of 0.105799 on 40 procs for 1 steps with 16000 atoms

22.4% CPU use with 40 MPI tasks x no OpenMP threads

Minimization stats:
  Stopping criterion = energy tolerance
  Energy initial, next-to-last, final = 
        -23789.7188645     -23789.7188645     -23789.7188645
  Force two-norm initial, final = 1.48976e-12 1.45346e-12
  Force max component initial, final = 1.68306e-14 1.7375e-14
  Final line search alpha, max atom move = 1 1.7375e-14
  Iterations, force evaluations = 1 2

MPI task timing breakdown:
Section |  min time  |  avg time  |  max time  |%varavg| %total
---------------------------------------------------------------
Pair    | 0.019878   | 0.031136   | 0.040975   |   2.5 | 29.43
Neigh   | 0          | 0          | 0          |   0.0 |  0.00
Comm    | 0.0084772  | 0.0208     | 0.037089   |   4.5 | 19.66
Output  | 0          | 0          | 0          |   0.0 |  0.00
Modify  | 0          | 0          | 0          |   0.0 |  0.00
Other   |            | 0.05386    |            |       | 50.91

Nlocal:    400 ave 450 max 350 min
Histogram: 16 0 0 0 0 8 0 0 0 16
Nghost:    1958 ave 2008 max 1908 min
Histogram: 16 0 0 0 0 8 0 0 0 16
Neighs:    17600 ave 19903 max 15217 min
Histogram: 16 0 0 0 0 5 3 0 3 13

Total # of neighbors = 704000
Ave neighs/atom = 44
Neighbor list builds = 0
Dangerous builds = 0
@@@@  (energy per atom): 3.7335 -1.48685742903219 26.0206697851875 -0.0926954774535762 -1.50191194025114
Lattice spacing in x,y,z = 3.733 3.733 3.733
Created orthogonal box = (0 0 0) to (74.66 74.66 74.66)
  2 by 4 by 5 MPI processor grid
Created 16000 atoms
  create_atoms CPU = 0.0100222 secs
WARNING: Using 'neigh_modify every 1 delay 0 check yes' setting during minimization (../min.cpp:190)
Neighbor list info ...
  update every 1 steps, delay 0 steps, check yes
  max neighbors/atom: 2000, page size: 100000
  master list distance cutoff = 8.3
  ghost atom cutoff = 8.3
  binsize = 4.15, bins = 18 18 18
  1 neighbor lists, perpetual/occasional/extra = 1 0 0
  (1) pair eam/fs, perpetual
      attributes: half, newton on
      pair build: half/bin/atomonly/newton
      stencil: half/bin/3d/newton
      bin: standard
Setting up sd style minimization ...
  Unit style    : metal
  Current step  : 0
Per MPI rank memory allocation (min/avg/max) = 4.536 | 4.537 | 4.537 Mbytes
Step Temp E_pair E_mol TotEng Press 
       0            0   -23789.811            0   -23789.811    -834.4753 
       1            0   -23789.811            0   -23789.811    -834.4753 
Loop time of 0.0704318 on 40 procs for 1 steps with 16000 atoms

22.7% CPU use with 40 MPI tasks x no OpenMP threads

Minimization stats:
  Stopping criterion = energy tolerance
  Energy initial, next-to-last, final = 
         -23789.810801      -23789.810801      -23789.810801
  Force two-norm initial, final = 1.18365e-12 1.1223e-12
  Force max component initial, final = 1.67193e-14 1.79093e-14
  Final line search alpha, max atom move = 1 1.79093e-14
  Iterations, force evaluations = 1 2

MPI task timing breakdown:
Section |  min time  |  avg time  |  max time  |%varavg| %total
---------------------------------------------------------------
Pair    | 0.016815   | 0.023931   | 0.028218   |   1.8 | 33.98
Neigh   | 0          | 0          | 0          |   0.0 |  0.00
Comm    | 0.012182   | 0.019481   | 0.032892   |   3.2 | 27.66
Output  | 0          | 0          | 0          |   0.0 |  0.00
Modify  | 0          | 0          | 0          |   0.0 |  0.00
Other   |            | 0.02702    |            |       | 38.36

Nlocal:    400 ave 400 max 400 min
Histogram: 40 0 0 0 0 0 0 0 0 0
Nghost:    1958 ave 1958 max 1958 min
Histogram: 40 0 0 0 0 0 0 0 0 0
Neighs:    17600 ave 18072 max 17043 min
Histogram: 4 2 9 2 1 3 3 4 3 9

Total # of neighbors = 704000
Ave neighs/atom = 44
Neighbor list builds = 0
Dangerous builds = 0
@@@@  (energy per atom): 3.733 -1.48686317506389 26.0102169185 -0.0834475298688183 -1.50041029894944
Lattice spacing in x,y,z = 3.7325 3.7325 3.7325
Created orthogonal box = (0 0 0) to (74.65 74.65 74.65)
  2 by 4 by 5 MPI processor grid
Created 16000 atoms
  create_atoms CPU = 0.013298 secs
WARNING: Using 'neigh_modify every 1 delay 0 check yes' setting during minimization (../min.cpp:190)
Neighbor list info ...
  update every 1 steps, delay 0 steps, check yes
  max neighbors/atom: 2000, page size: 100000
  master list distance cutoff = 8.3
  ghost atom cutoff = 8.3
  binsize = 4.15, bins = 18 18 18
  1 neighbor lists, perpetual/occasional/extra = 1 0 0
  (1) pair eam/fs, perpetual
      attributes: half, newton on
      pair build: half/bin/atomonly/newton
      stencil: half/bin/3d/newton
      bin: standard
Setting up sd style minimization ...
  Unit style    : metal
  Current step  : 0
Per MPI rank memory allocation (min/avg/max) = 4.516 | 4.524 | 4.527 Mbytes
Step Temp E_pair E_mol TotEng Press 
       0            0   -23789.893            0   -23789.893   -741.83721 
       1            0   -23789.893            0   -23789.893   -741.83721 
Loop time of 0.106847 on 40 procs for 1 steps with 16000 atoms

23.1% CPU use with 40 MPI tasks x no OpenMP threads

Minimization stats:
  Stopping criterion = energy tolerance
  Energy initial, next-to-last, final = 
        -23789.8930536     -23789.8930536     -23789.8930536
  Force two-norm initial, final = 1.38372e-12 1.36749e-12
  Force max component initial, final = 1.66153e-14 1.67436e-14
  Final line search alpha, max atom move = 1 1.67436e-14
  Iterations, force evaluations = 1 2

MPI task timing breakdown:
Section |  min time  |  avg time  |  max time  |%varavg| %total
---------------------------------------------------------------
Pair    | 0.015648   | 0.023342   | 0.034963   |   2.9 | 21.85
Neigh   | 0          | 0          | 0          |   0.0 |  0.00
Comm    | 0.022205   | 0.037543   | 0.048438   |   2.9 | 35.14
Output  | 0          | 0          | 0          |   0.0 |  0.00
Modify  | 0          | 0          | 0          |   0.0 |  0.00
Other   |            | 0.04596    |            |       | 43.02

Nlocal:    400 ave 500 max 320 min
Histogram: 4 8 2 4 8 0 2 8 0 4
Nghost:    1958 ave 2038 max 1858 min
Histogram: 4 0 8 2 0 8 4 2 8 4
Neighs:    17600 ave 22217 max 14059 min
Histogram: 4 8 2 6 6 0 6 4 0 4

Total # of neighbors = 704000
Ave neighs/atom = 44
Neighbor list builds = 0
Dangerous builds = 0
@@@@  (energy per atom): 3.7325 -1.48686831584911 25.9997668515625 -0.0741837210087962 -1.49890668646814
Lattice spacing in x,y,z = 3.732 3.732 3.732
Created orthogonal box = (0 0 0) to (74.64 74.64 74.64)
  2 by 4 by 5 MPI processor grid
Created 16000 atoms
  create_atoms CPU = 0.00365591 secs
WARNING: Using 'neigh_modify every 1 delay 0 check yes' setting during minimization (../min.cpp:190)
Neighbor list info ...
  update every 1 steps, delay 0 steps, check yes
  max neighbors/atom: 2000, page size: 100000
  master list distance cutoff = 8.3
  ghost atom cutoff = 8.3
  binsize = 4.15, bins = 18 18 18
  1 neighbor lists, perpetual/occasional/extra = 1 0 0
  (1) pair eam/fs, perpetual
      attributes: half, newton on
      pair build: half/bin/atomonly/newton
      stencil: half/bin/3d/newton
      bin: standard
Setting up sd style minimization ...
  Unit style    : metal
  Current step  : 0
Per MPI rank memory allocation (min/avg/max) = 4.536 | 4.537 | 4.537 Mbytes
Step Temp E_pair E_mol TotEng Press 
       0            0   -23789.966            0   -23789.966   -649.04032 
       1            0   -23789.966            0   -23789.966   -649.04032 
Loop time of 0.0606697 on 40 procs for 1 steps with 16000 atoms

21.9% CPU use with 40 MPI tasks x no OpenMP threads

Minimization stats:
  Stopping criterion = energy tolerance
  Energy initial, next-to-last, final = 
        -23789.9656108     -23789.9656108     -23789.9656108
  Force two-norm initial, final = 4.20006e-13 4.19684e-13
  Force max component initial, final = 8.46892e-15 8.46892e-15
  Final line search alpha, max atom move = 1 8.46892e-15
  Iterations, force evaluations = 1 2

MPI task timing breakdown:
Section |  min time  |  avg time  |  max time  |%varavg| %total
---------------------------------------------------------------
Pair    | 0.00598    | 0.0073254  | 0.011247   |   1.2 | 12.07
Neigh   | 0          | 0          | 0          |   0.0 |  0.00
Comm    | 0.011997   | 0.015212   | 0.018265   |   1.4 | 25.07
Output  | 0          | 0          | 0          |   0.0 |  0.00
Modify  | 0          | 0          | 0          |   0.0 |  0.00
Other   |            | 0.03813    |            |       | 62.85

Nlocal:    400 ave 400 max 400 min
Histogram: 40 0 0 0 0 0 0 0 0 0
Nghost:    1958 ave 1958 max 1958 min
Histogram: 40 0 0 0 0 0 0 0 0 0
Neighs:    17600 ave 18072 max 17043 min
Histogram: 4 2 9 2 1 3 3 4 3 9

Total # of neighbors = 704000
Ave neighs/atom = 44
Neighbor list builds = 0
Dangerous builds = 0
@@@@  (energy per atom): 3.732 -1.486872850677 25.989319584 -0.0649040320054749 -1.49740110165359
Lattice spacing in x,y,z = 3.7315 3.7315 3.7315
Created orthogonal box = (0 0 0) to (74.63 74.63 74.63)
  2 by 4 by 5 MPI processor grid
Created 16000 atoms
  create_atoms CPU = 0.027802 secs
WARNING: Using 'neigh_modify every 1 delay 0 check yes' setting during minimization (../min.cpp:190)
Neighbor list info ...
  update every 1 steps, delay 0 steps, check yes
  max neighbors/atom: 2000, page size: 100000
  master list distance cutoff = 8.3
  ghost atom cutoff = 8.3
  binsize = 4.15, bins = 18 18 18
  1 neighbor lists, perpetual/occasional/extra = 1 0 0
  (1) pair eam/fs, perpetual
      attributes: half, newton on
      pair build: half/bin/atomonly/newton
      stencil: half/bin/3d/newton
      bin: standard
Setting up sd style minimization ...
  Unit style    : metal
  Current step  : 0
Per MPI rank memory allocation (min/avg/max) = 4.536 | 4.537 | 4.537 Mbytes
Step Temp E_pair E_mol TotEng Press 
       0            0   -23790.028            0   -23790.028   -556.08443 
       1            0   -23790.028            0   -23790.028   -556.08443 
Loop time of 0.101178 on 40 procs for 1 steps with 16000 atoms

23.2% CPU use with 40 MPI tasks x no OpenMP threads

Minimization stats:
  Stopping criterion = energy tolerance
  Energy initial, next-to-last, final = 
        -23790.0284614     -23790.0284614     -23790.0284614
  Force two-norm initial, final = 1.2824e-12 1.25293e-12
  Force max component initial, final = 1.7028e-14 1.70072e-14
  Final line search alpha, max atom move = 1 1.70072e-14
  Iterations, force evaluations = 1 2

MPI task timing breakdown:
Section |  min time  |  avg time  |  max time  |%varavg| %total
---------------------------------------------------------------
Pair    | 0.021411   | 0.028243   | 0.043389   |   2.9 | 27.91
Neigh   | 0          | 0          | 0          |   0.0 |  0.00
Comm    | 0.017128   | 0.0313     | 0.046567   |   3.8 | 30.94
Output  | 0          | 0          | 0          |   0.0 |  0.00
Modify  | 0          | 0          | 0          |   0.0 |  0.00
Other   |            | 0.04163    |            |       | 41.15

Nlocal:    400 ave 400 max 400 min
Histogram: 40 0 0 0 0 0 0 0 0 0
Nghost:    1958 ave 1958 max 1958 min
Histogram: 40 0 0 0 0 0 0 0 0 0
Neighs:    17600 ave 18072 max 17043 min
Histogram: 4 2 9 2 1 3 3 4 3 9

Total # of neighbors = 704000
Ave neighs/atom = 44
Neighbor list builds = 0
Dangerous builds = 0
@@@@  (energy per atom): 3.7315 -1.48687677883587 25.9788751154375 -0.0556084433230399 -1.49589354324636
Lattice spacing in x,y,z = 3.731 3.731 3.731
Created orthogonal box = (0 0 0) to (74.62 74.62 74.62)
  2 by 4 by 5 MPI processor grid
Created 16000 atoms
  create_atoms CPU = 0.0218182 secs
WARNING: Using 'neigh_modify every 1 delay 0 check yes' setting during minimization (../min.cpp:190)
Neighbor list info ...
  update every 1 steps, delay 0 steps, check yes
  max neighbors/atom: 2000, page size: 100000
  master list distance cutoff = 8.3
  ghost atom cutoff = 8.3
  binsize = 4.15, bins = 18 18 18
  1 neighbor lists, perpetual/occasional/extra = 1 0 0
  (1) pair eam/fs, perpetual
      attributes: half, newton on
      pair build: half/bin/atomonly/newton
      stencil: half/bin/3d/newton
      bin: standard
Setting up sd style minimization ...
  Unit style    : metal
  Current step  : 0
Per MPI rank memory allocation (min/avg/max) = 4.516 | 4.524 | 4.527 Mbytes
Step Temp E_pair E_mol TotEng Press 
       0            0   -23790.082            0   -23790.082   -462.96936 
       1            0   -23790.082            0   -23790.082   -462.96936 
Loop time of 0.0995316 on 40 procs for 1 steps with 16000 atoms

21.2% CPU use with 40 MPI tasks x no OpenMP threads

Minimization stats:
  Stopping criterion = energy tolerance
  Energy initial, next-to-last, final = 
        -23790.0815938     -23790.0815938     -23790.0815938
  Force two-norm initial, final = 1.26206e-12 1.20334e-12
  Force max component initial, final = 1.6709e-14 1.74721e-14
  Final line search alpha, max atom move = 1 1.74721e-14
  Iterations, force evaluations = 1 2

MPI task timing breakdown:
Section |  min time  |  avg time  |  max time  |%varavg| %total
---------------------------------------------------------------
Pair    | 0.017686   | 0.024169   | 0.034839   |   1.9 | 24.28
Neigh   | 0          | 0          | 0          |   0.0 |  0.00
Comm    | 0.0062959  | 0.018998   | 0.030821   |   4.3 | 19.09
Output  | 0          | 0          | 0          |   0.0 |  0.00
Modify  | 0          | 0          | 0          |   0.0 |  0.00
Other   |            | 0.05637    |            |       | 56.63

Nlocal:    400 ave 500 max 320 min
Histogram: 4 8 2 4 8 0 2 8 0 4
Nghost:    1958 ave 2038 max 1858 min
Histogram: 4 0 8 2 0 8 4 2 8 4
Neighs:    17600 ave 22217 max 14059 min
Histogram: 4 8 2 6 6 0 6 4 0 4

Total # of neighbors = 704000
Ave neighs/atom = 44
Neighbor list builds = 0
Dangerous builds = 0
@@@@  (energy per atom): 3.731 -1.48688009961362 25.9684334455 -0.0462969358346535 -1.4943840100564
Lattice spacing in x,y,z = 3.7305 3.7305 3.7305
Created orthogonal box = (0 0 0) to (74.61 74.61 74.61)
  2 by 4 by 5 MPI processor grid
Created 16000 atoms
  create_atoms CPU = 0.0160279 secs
WARNING: Using 'neigh_modify every 1 delay 0 check yes' setting during minimization (../min.cpp:190)
Neighbor list info ...
  update every 1 steps, delay 0 steps, check yes
  max neighbors/atom: 2000, page size: 100000
  master list distance cutoff = 8.3
  ghost atom cutoff = 8.3
  binsize = 4.15, bins = 18 18 18
  1 neighbor lists, perpetual/occasional/extra = 1 0 0
  (1) pair eam/fs, perpetual
      attributes: half, newton on
      pair build: half/bin/atomonly/newton
      stencil: half/bin/3d/newton
      bin: standard
Setting up sd style minimization ...
  Unit style    : metal
  Current step  : 0
Per MPI rank memory allocation (min/avg/max) = 4.536 | 4.537 | 4.537 Mbytes
Step Temp E_pair E_mol TotEng Press 
       0            0   -23790.125            0   -23790.125   -369.69491 
       1            0   -23790.125            0   -23790.125   -369.69491 
Loop time of 0.102549 on 40 procs for 1 steps with 16000 atoms

22.8% CPU use with 40 MPI tasks x no OpenMP threads

Minimization stats:
  Stopping criterion = energy tolerance
  Energy initial, next-to-last, final = 
        -23790.1249968     -23790.1249968     -23790.1249968
  Force two-norm initial, final = 1.29508e-12 1.29119e-12
  Force max component initial, final = 1.6636e-14 1.69101e-14
  Final line search alpha, max atom move = 1 1.69101e-14
  Iterations, force evaluations = 1 2

MPI task timing breakdown:
Section |  min time  |  avg time  |  max time  |%varavg| %total
---------------------------------------------------------------
Pair    | 0.020175   | 0.031807   | 0.037771   |   2.0 | 31.02
Neigh   | 0          | 0          | 0          |   0.0 |  0.00
Comm    | 0.012225   | 0.020345   | 0.039088   |   3.4 | 19.84
Output  | 0          | 0          | 0          |   0.0 |  0.00
Modify  | 0          | 0          | 0          |   0.0 |  0.00
Other   |            | 0.0504     |            |       | 49.14

Nlocal:    400 ave 400 max 400 min
Histogram: 40 0 0 0 0 0 0 0 0 0
Nghost:    1958 ave 1958 max 1958 min
Histogram: 40 0 0 0 0 0 0 0 0 0
Neighs:    17600 ave 18072 max 17043 min
Histogram: 4 2 9 2 1 3 3 4 3 9

Total # of neighbors = 704000
Ave neighs/atom = 44
Neighbor list builds = 0
Dangerous builds = 0
@@@@  (energy per atom): 3.7305 -1.48688281229735 25.9579945738125 -0.0369694905592768 -1.49287250091988
Lattice spacing in x,y,z = 3.73 3.73 3.73
Created orthogonal box = (0 0 0) to (74.6 74.6 74.6)
  2 by 4 by 5 MPI processor grid
Created 16000 atoms
  create_atoms CPU = 0.0205619 secs
WARNING: Using 'neigh_modify every 1 delay 0 check yes' setting during minimization (../min.cpp:190)
Neighbor list info ...
  update every 1 steps, delay 0 steps, check yes
  max neighbors/atom: 2000, page size: 100000
  master list distance cutoff = 8.3
  ghost atom cutoff = 8.3
  binsize = 4.15, bins = 18 18 18
  1 neighbor lists, perpetual/occasional/extra = 1 0 0
  (1) pair eam/fs, perpetual
      attributes: half, newton on
      pair build: half/bin/atomonly/newton
      stencil: half/bin/3d/newton
      bin: standard
Setting up sd style minimization ...
  Unit style    : metal
  Current step  : 0
Per MPI rank memory allocation (min/avg/max) = 4.536 | 4.537 | 4.537 Mbytes
Step Temp E_pair E_mol TotEng Press 
       0            0   -23790.159            0   -23790.159   -276.26088 
       1            0   -23790.159            0   -23790.159   -276.26088 
Loop time of 0.0881345 on 40 procs for 1 steps with 16000 atoms

22.6% CPU use with 40 MPI tasks x no OpenMP threads

Minimization stats:
  Stopping criterion = energy tolerance
  Energy initial, next-to-last, final = 
        -23790.1586588     -23790.1586588     -23790.1586588
  Force two-norm initial, final = 1.44951e-12 1.20421e-12
  Force max component initial, final = 1.74406e-14 1.72119e-14
  Final line search alpha, max atom move = 1 1.72119e-14
  Iterations, force evaluations = 1 2

MPI task timing breakdown:
Section |  min time  |  avg time  |  max time  |%varavg| %total
---------------------------------------------------------------
Pair    | 0.0172     | 0.021689   | 0.028824   |   1.8 | 24.61
Neigh   | 0          | 0          | 0          |   0.0 |  0.00
Comm    | 0.0087876  | 0.016758   | 0.027376   |   3.2 | 19.01
Output  | 0          | 0          | 0          |   0.0 |  0.00
Modify  | 0          | 0          | 0          |   0.0 |  0.00
Other   |            | 0.04969    |            |       | 56.38

Nlocal:    400 ave 400 max 400 min
Histogram: 40 0 0 0 0 0 0 0 0 0
Nghost:    1958 ave 1958 max 1958 min
Histogram: 40 0 0 0 0 0 0 0 0 0
Neighs:    17600 ave 18072 max 17043 min
Histogram: 4 2 9 2 1 3 3 4 3 9

Total # of neighbors = 704000
Ave neighs/atom = 44
Neighbor list builds = 0
Dangerous builds = 0
@@@@  (energy per atom): 3.73 -1.4868849161742 25.9475585 -0.0276260878273869 -1.4913590145649
Lattice spacing in x,y,z = 3.7295 3.7295 3.7295
Created orthogonal box = (0 0 0) to (74.59 74.59 74.59)
  4 by 2 by 5 MPI processor grid
Created 16000 atoms
  create_atoms CPU = 0.0201361 secs
WARNING: Using 'neigh_modify every 1 delay 0 check yes' setting during minimization (../min.cpp:190)
Neighbor list info ...
  update every 1 steps, delay 0 steps, check yes
  max neighbors/atom: 2000, page size: 100000
  master list distance cutoff = 8.3
  ghost atom cutoff = 8.3
  binsize = 4.15, bins = 18 18 18
  1 neighbor lists, perpetual/occasional/extra = 1 0 0
  (1) pair eam/fs, perpetual
      attributes: half, newton on
      pair build: half/bin/atomonly/newton
      stencil: half/bin/3d/newton
      bin: standard
Setting up sd style minimization ...
  Unit style    : metal
  Current step  : 0
Per MPI rank memory allocation (min/avg/max) = 4.516 | 4.524 | 4.527 Mbytes
Step Temp E_pair E_mol TotEng Press 
       0            0   -23790.183            0   -23790.183   -182.66709 
       1            0   -23790.183            0   -23790.183   -182.66709 
Loop time of 0.0915121 on 40 procs for 1 steps with 16000 atoms

22.2% CPU use with 40 MPI tasks x no OpenMP threads

Minimization stats:
  Stopping criterion = energy tolerance
  Energy initial, next-to-last, final = 
        -23790.1825685     -23790.1825685     -23790.1825685
  Force two-norm initial, final = 6.35751e-13 6.32263e-13
  Force max component initial, final = 8.95334e-15 8.99519e-15
  Final line search alpha, max atom move = 1 8.99519e-15
  Iterations, force evaluations = 1 2

MPI task timing breakdown:
Section |  min time  |  avg time  |  max time  |%varavg| %total
---------------------------------------------------------------
Pair    | 0.0095608  | 0.015483   | 0.020559   |   2.4 | 16.92
Neigh   | 0          | 0          | 0          |   0.0 |  0.00
Comm    | 0.0080848  | 0.017141   | 0.030456   |   3.5 | 18.73
Output  | 0          | 0          | 0          |   0.0 |  0.00
Modify  | 0          | 0          | 0          |   0.0 |  0.00
Other   |            | 0.05889    |            |       | 64.35

Nlocal:    400 ave 500 max 320 min
Histogram: 4 8 2 4 8 0 2 8 0 4
Nghost:    1958 ave 2038 max 1858 min
Histogram: 4 0 8 2 0 8 4 2 8 4
Neighs:    17600 ave 22150 max 14003 min
Histogram: 4 8 2 5 7 0 6 4 0 4

Total # of neighbors = 704000
Ave neighs/atom = 44
Neighbor list builds = 0
Dangerous builds = 0
@@@@  (energy per atom): 3.7295 -1.48688641052983 25.9371252236875 -0.0182667085792869 -1.48984354982032
Lattice spacing in x,y,z = 3.729 3.729 3.729
Created orthogonal box = (0 0 0) to (74.58 74.58 74.58)
  2 by 4 by 5 MPI processor grid
Created 16000 atoms
  create_atoms CPU = 0.0408981 secs
WARNING: Using 'neigh_modify every 1 delay 0 check yes' setting during minimization (../min.cpp:190)
Neighbor list info ...
  update every 1 steps, delay 0 steps, check yes
  max neighbors/atom: 2000, page size: 100000
  master list distance cutoff = 8.3
  ghost atom cutoff = 8.3
  binsize = 4.15, bins = 18 18 18
  1 neighbor lists, perpetual/occasional/extra = 1 0 0
  (1) pair eam/fs, perpetual
      attributes: half, newton on
      pair build: half/bin/atomonly/newton
      stencil: half/bin/3d/newton
      bin: standard
Setting up sd style minimization ...
  Unit style    : metal
  Current step  : 0
Per MPI rank memory allocation (min/avg/max) = 4.536 | 4.537 | 4.537 Mbytes
Step Temp E_pair E_mol TotEng Press 
       0            0   -23790.197            0   -23790.197   -88.913339 
       1            0   -23790.197            0   -23790.197   -88.913339 
Loop time of 0.0822028 on 40 procs for 1 steps with 16000 atoms

23.9% CPU use with 40 MPI tasks x no OpenMP threads

Minimization stats:
  Stopping criterion = energy tolerance
  Energy initial, next-to-last, final = 
        -23790.1967144     -23790.1967144     -23790.1967144
  Force two-norm initial, final = 1.30623e-12 1.29101e-12
  Force max component initial, final = 1.60063e-14 1.6577e-14
  Final line search alpha, max atom move = 1 1.6577e-14
  Iterations, force evaluations = 1 2

MPI task timing breakdown:
Section |  min time  |  avg time  |  max time  |%varavg| %total
---------------------------------------------------------------
Pair    | 0.016583   | 0.028065   | 0.042576   |   3.6 | 34.14
Neigh   | 0          | 0          | 0          |   0.0 |  0.00
Comm    | 0.012243   | 0.02341    | 0.03515    |   3.6 | 28.48
Output  | 0          | 0          | 0          |   0.0 |  0.00
Modify  | 0          | 0          | 0          |   0.0 |  0.00
Other   |            | 0.03073    |            |       | 37.38

Nlocal:    400 ave 400 max 400 min
Histogram: 40 0 0 0 0 0 0 0 0 0
Nghost:    1958 ave 1958 max 1958 min
Histogram: 40 0 0 0 0 0 0 0 0 0
Neighs:    17600 ave 18072 max 17043 min
Histogram: 4 2 9 2 1 3 3 4 3 9

Total # of neighbors = 704000
Ave neighs/atom = 44
Neighbor list builds = 0
Dangerous builds = 0
@@@@  (energy per atom): 3.729 -1.4868872946511 25.9266947445 -0.00889133394294291 -1.48832610554996
Lattice spacing in x,y,z = 3.7285 3.7285 3.7285
Created orthogonal box = (0 0 0) to (74.57 74.57 74.57)
  2 by 4 by 5 MPI processor grid
Created 16000 atoms
  create_atoms CPU = 0.0174031 secs
WARNING: Using 'neigh_modify every 1 delay 0 check yes' setting during minimization (../min.cpp:190)
Neighbor list info ...
  update every 1 steps, delay 0 steps, check yes
  max neighbors/atom: 2000, page size: 100000
  master list distance cutoff = 8.3
  ghost atom cutoff = 8.3
  binsize = 4.15, bins = 18 18 18
  1 neighbor lists, perpetual/occasional/extra = 1 0 0
  (1) pair eam/fs, perpetual
      attributes: half, newton on
      pair build: half/bin/atomonly/newton
      stencil: half/bin/3d/newton
      bin: standard
Setting up sd style minimization ...
  Unit style    : metal
  Current step  : 0
Per MPI rank memory allocation (min/avg/max) = 4.536 | 4.537 | 4.537 Mbytes
Step Temp E_pair E_mol TotEng Press 
       0            0   -23790.201            0   -23790.201    5.0005596 
       1            0   -23790.201            0   -23790.201    5.0005596 
Loop time of 0.0675949 on 40 procs for 1 steps with 16000 atoms

22.8% CPU use with 40 MPI tasks x no OpenMP threads

Minimization stats:
  Stopping criterion = energy tolerance
  Energy initial, next-to-last, final = 
        -23790.2010852     -23790.2010852     -23790.2010852
  Force two-norm initial, final = 9.14075e-13 9.14006e-13
  Force max component initial, final = 9.312e-15 9.312e-15
  Final line search alpha, max atom move = 1 9.312e-15
  Iterations, force evaluations = 1 2

MPI task timing breakdown:
Section |  min time  |  avg time  |  max time  |%varavg| %total
---------------------------------------------------------------
Pair    | 0.019279   | 0.030066   | 0.038558   |   3.0 | 44.48
Neigh   | 0          | 0          | 0          |   0.0 |  0.00
Comm    | 0.0041001  | 0.015055   | 0.025188   |   4.6 | 22.27
Output  | 0          | 0          | 0          |   0.0 |  0.00
Modify  | 0          | 0          | 0          |   0.0 |  0.00
Other   |            | 0.02247    |            |       | 33.25

Nlocal:    400 ave 400 max 400 min
Histogram: 40 0 0 0 0 0 0 0 0 0
Nghost:    1958 ave 1958 max 1958 min
Histogram: 40 0 0 0 0 0 0 0 0 0
Neighs:    17600 ave 18072 max 17043 min
Histogram: 4 2 9 2 1 3 3 4 3 9

Total # of neighbors = 704000
Ave neighs/atom = 44
Neighbor list builds = 0
Dangerous builds = 0
@@@@  (energy per atom): 3.7285 -1.48688756782256 25.9162670620625 0.000500055956425116 -1.48680668045645
Lattice spacing in x,y,z = 3.728 3.728 3.728
Created orthogonal box = (0 0 0) to (74.56 74.56 74.56)
  2 by 4 by 5 MPI processor grid
Created 16000 atoms
  create_atoms CPU = 0.0178251 secs
WARNING: Using 'neigh_modify every 1 delay 0 check yes' setting during minimization (../min.cpp:190)
Neighbor list info ...
  update every 1 steps, delay 0 steps, check yes
  max neighbors/atom: 2000, page size: 100000
  master list distance cutoff = 8.3
  ghost atom cutoff = 8.3
  binsize = 4.15, bins = 18 18 18
  1 neighbor lists, perpetual/occasional/extra = 1 0 0
  (1) pair eam/fs, perpetual
      attributes: half, newton on
      pair build: half/bin/atomonly/newton
      stencil: half/bin/3d/newton
      bin: standard
Setting up sd style minimization ...
  Unit style    : metal
  Current step  : 0
Per MPI rank memory allocation (min/avg/max) = 4.536 | 4.537 | 4.537 Mbytes
Step Temp E_pair E_mol TotEng Press 
       0            0   -23790.196            0   -23790.196    99.074804 
       1            0   -23790.196            0   -23790.196    99.074804 
Loop time of 0.0882302 on 40 procs for 1 steps with 16000 atoms

22.6% CPU use with 40 MPI tasks x no OpenMP threads

Minimization stats:
  Stopping criterion = energy tolerance
  Energy initial, next-to-last, final = 
        -23790.1956693     -23790.1956693     -23790.1956693
  Force two-norm initial, final = 1.58407e-12 1.57315e-12
  Force max component initial, final = 1.76525e-14 1.8225e-14
  Final line search alpha, max atom move = 1 1.8225e-14
  Iterations, force evaluations = 1 2

MPI task timing breakdown:
Section |  min time  |  avg time  |  max time  |%varavg| %total
---------------------------------------------------------------
Pair    | 0.022458   | 0.029929   | 0.035779   |   2.3 | 33.92
Neigh   | 0          | 0          | 0          |   0.0 |  0.00
Comm    | 0.0076642  | 0.013982   | 0.022761   |   3.4 | 15.85
Output  | 0          | 0          | 0          |   0.0 |  0.00
Modify  | 0          | 0          | 0          |   0.0 |  0.00
Other   |            | 0.04432    |            |       | 50.23

Nlocal:    400 ave 400 max 400 min
Histogram: 40 0 0 0 0 0 0 0 0 0
Nghost:    1958 ave 1958 max 1958 min
Histogram: 40 0 0 0 0 0 0 0 0 0
Neighs:    17600 ave 18072 max 17043 min
Histogram: 4 2 9 2 1 3 3 4 3 9

Total # of neighbors = 704000
Ave neighs/atom = 44
Neighbor list builds = 0
Dangerous builds = 0
@@@@  (energy per atom): 3.728 -1.48688722932958 25.905842176 0.00990748040465754 -1.48528527334205
Lattice spacing in x,y,z = 3.7275 3.7275 3.7275
Created orthogonal box = (0 0 0) to (74.55 74.55 74.55)
  4 by 2 by 5 MPI processor grid
Created 16000 atoms
  create_atoms CPU = 0.0161481 secs
WARNING: Using 'neigh_modify every 1 delay 0 check yes' setting during minimization (../min.cpp:190)
Neighbor list info ...
  update every 1 steps, delay 0 steps, check yes
  max neighbors/atom: 2000, page size: 100000
  master list distance cutoff = 8.3
  ghost atom cutoff = 8.3
  binsize = 4.15, bins = 18 18 18
  1 neighbor lists, perpetual/occasional/extra = 1 0 0
  (1) pair eam/fs, perpetual
      attributes: half, newton on
      pair build: half/bin/atomonly/newton
      stencil: half/bin/3d/newton
      bin: standard
Setting up sd style minimization ...
  Unit style    : metal
  Current step  : 0
Per MPI rank memory allocation (min/avg/max) = 4.536 | 4.537 | 4.537 Mbytes
Step Temp E_pair E_mol TotEng Press 
       0            0    -23790.18            0    -23790.18    193.30959 
       1            0    -23790.18            0    -23790.18    193.30959 
Loop time of 0.0845802 on 40 procs for 1 steps with 16000 atoms

22.3% CPU use with 40 MPI tasks x no OpenMP threads

Minimization stats:
  Stopping criterion = energy tolerance
  Energy initial, next-to-last, final = 
        -23790.1804553     -23790.1804553     -23790.1804553
  Force two-norm initial, final = 1.33538e-12 1.33005e-12
  Force max component initial, final = 1.71478e-14 1.71139e-14
  Final line search alpha, max atom move = 1 1.71139e-14
  Iterations, force evaluations = 1 2

MPI task timing breakdown:
Section |  min time  |  avg time  |  max time  |%varavg| %total
---------------------------------------------------------------
Pair    | 0.014653   | 0.023269   | 0.028993   |   2.2 | 27.51
Neigh   | 0          | 0          | 0          |   0.0 |  0.00
Comm    | 0.0059683  | 0.013073   | 0.019791   |   3.8 | 15.46
Output  | 0          | 0          | 0          |   0.0 |  0.00
Modify  | 0          | 0          | 0          |   0.0 |  0.00
Other   |            | 0.04824    |            |       | 57.03

Nlocal:    400 ave 400 max 400 min
Histogram: 40 0 0 0 0 0 0 0 0 0
Nghost:    1958 ave 1958 max 1958 min
Histogram: 40 0 0 0 0 0 0 0 0 0
Neighs:    17600 ave 18054 max 17097 min
Histogram: 8 2 6 1 3 1 3 1 7 8

Total # of neighbors = 704000
Ave neighs/atom = 44
Neighbor list builds = 0
Dangerous builds = 0
@@@@  (energy per atom): 3.7275 -1.4868862784563 25.8954200859375 0.0193309585396085 -1.48376188303516
Lattice spacing in x,y,z = 3.727 3.727 3.727
Created orthogonal box = (0 0 0) to (74.54 74.54 74.54)
  2 by 4 by 5 MPI processor grid
Created 16000 atoms
  create_atoms CPU = 0.0186338 secs
WARNING: Using 'neigh_modify every 1 delay 0 check yes' setting during minimization (../min.cpp:190)
Neighbor list info ...
  update every 1 steps, delay 0 steps, check yes
  max neighbors/atom: 2000, page size: 100000
  master list distance cutoff = 8.3
  ghost atom cutoff = 8.3
  binsize = 4.15, bins = 18 18 18
  1 neighbor lists, perpetual/occasional/extra = 1 0 0
  (1) pair eam/fs, perpetual
      attributes: half, newton on
      pair build: half/bin/atomonly/newton
      stencil: half/bin/3d/newton
      bin: standard
Setting up sd style minimization ...
  Unit style    : metal
  Current step  : 0
Per MPI rank memory allocation (min/avg/max) = 4.536 | 4.537 | 4.537 Mbytes
Step Temp E_pair E_mol TotEng Press 
       0            0   -23790.155            0   -23790.155     287.7051 
       1            0   -23790.155            0   -23790.155     287.7051 
Loop time of 0.0911099 on 40 procs for 1 steps with 16000 atoms

22.9% CPU use with 40 MPI tasks x no OpenMP threads

Minimization stats:
  Stopping criterion = energy tolerance
  Energy initial, next-to-last, final = 
        -23790.1554318     -23790.1554318     -23790.1554318
  Force two-norm initial, final = 1.20717e-12 1.13723e-12
  Force max component initial, final = 1.66505e-14 1.76734e-14
  Final line search alpha, max atom move = 1 1.76734e-14
  Iterations, force evaluations = 1 2

MPI task timing breakdown:
Section |  min time  |  avg time  |  max time  |%varavg| %total
---------------------------------------------------------------
Pair    | 0.010151   | 0.017567   | 0.031358   |   3.5 | 19.28
Neigh   | 0          | 0          | 0          |   0.0 |  0.00
Comm    | 0.015074   | 0.025945   | 0.04548    |   3.8 | 28.48
Output  | 0          | 0          | 0          |   0.0 |  0.00
Modify  | 0          | 0          | 0          |   0.0 |  0.00
Other   |            | 0.0476     |            |       | 52.24

Nlocal:    400 ave 400 max 400 min
Histogram: 40 0 0 0 0 0 0 0 0 0
Nghost:    1958 ave 1958 max 1958 min
Histogram: 40 0 0 0 0 0 0 0 0 0
Neighs:    17600 ave 18072 max 17043 min
Histogram: 4 2 9 2 1 3 3 4 3 9

Total # of neighbors = 704000
Ave neighs/atom = 44
Neighbor list builds = 0
Dangerous builds = 0
@@@@  (energy per atom): 3.727 -1.48688471448682 25.8850007915 0.0287705097139084 -1.48223650833277
Lattice spacing in x,y,z = 3.7265 3.7265 3.7265
Created orthogonal box = (0 0 0) to (74.53 74.53 74.53)
  2 by 4 by 5 MPI processor grid
Created 16000 atoms
  create_atoms CPU = 0.00429296 secs
WARNING: Using 'neigh_modify every 1 delay 0 check yes' setting during minimization (../min.cpp:190)
Neighbor list info ...
  update every 1 steps, delay 0 steps, check yes
  max neighbors/atom: 2000, page size: 100000
  master list distance cutoff = 8.3
  ghost atom cutoff = 8.3
  binsize = 4.15, bins = 18 18 18
  1 neighbor lists, perpetual/occasional/extra = 1 0 0
  (1) pair eam/fs, perpetual
      attributes: half, newton on
      pair build: half/bin/atomonly/newton
      stencil: half/bin/3d/newton
      bin: standard
Setting up sd style minimization ...
  Unit style    : metal
  Current step  : 0
Per MPI rank memory allocation (min/avg/max) = 4.536 | 4.537 | 4.537 Mbytes
Step Temp E_pair E_mol TotEng Press 
       0            0   -23790.121            0   -23790.121    382.26154 
       2            0   -23790.121            0   -23790.121    382.26154 
Loop time of 0.142966 on 40 procs for 2 steps with 16000 atoms

22.2% CPU use with 40 MPI tasks x no OpenMP threads

Minimization stats:
  Stopping criterion = energy tolerance
  Energy initial, next-to-last, final = 
        -23790.1205873     -23790.1205873     -23790.1205873
  Force two-norm initial, final = 1.28047e-12 1.26735e-12
  Force max component initial, final = 1.70974e-14 1.73195e-14
  Final line search alpha, max atom move = 1 1.73195e-14
  Iterations, force evaluations = 2 4

MPI task timing breakdown:
Section |  min time  |  avg time  |  max time  |%varavg| %total
---------------------------------------------------------------
Pair    | 0.023653   | 0.034045   | 0.049901   |   2.8 | 23.81
Neigh   | 0          | 0          | 0          |   0.0 |  0.00
Comm    | 0.019585   | 0.032642   | 0.05276    |   3.7 | 22.83
Output  | 0          | 0          | 0          |   0.0 |  0.00
Modify  | 0          | 0          | 0          |   0.0 |  0.00
Other   |            | 0.07628    |            |       | 53.35

Nlocal:    400 ave 400 max 400 min
Histogram: 40 0 0 0 0 0 0 0 0 0
Nghost:    1958 ave 1958 max 1958 min
Histogram: 40 0 0 0 0 0 0 0 0 0
Neighs:    17600 ave 18072 max 17043 min
Histogram: 4 2 9 2 1 3 3 4 3 9

Total # of neighbors = 704000
Ave neighs/atom = 44
Neighbor list builds = 0
Dangerous builds = 0
@@@@  (energy per atom): 3.7265 -1.48688253670463 25.8745842923125 0.0382261535911263 -1.48070914798457
Lattice spacing in x,y,z = 3.726 3.726 3.726
Created orthogonal box = (0 0 0) to (74.52 74.52 74.52)
  2 by 4 by 5 MPI processor grid
Created 16000 atoms
  create_atoms CPU = 0.0187449 secs
WARNING: Using 'neigh_modify every 1 delay 0 check yes' setting during minimization (../min.cpp:190)
Neighbor list info ...
  update every 1 steps, delay 0 steps, check yes
  max neighbors/atom: 2000, page size: 100000
  master list distance cutoff = 8.3
  ghost atom cutoff = 8.3
  binsize = 4.15, bins = 18 18 18
  1 neighbor lists, perpetual/occasional/extra = 1 0 0
  (1) pair eam/fs, perpetual
      attributes: half, newton on
      pair build: half/bin/atomonly/newton
      stencil: half/bin/3d/newton
      bin: standard
Setting up sd style minimization ...
  Unit style    : metal
  Current step  : 0
Per MPI rank memory allocation (min/avg/max) = 4.536 | 4.537 | 4.537 Mbytes
Step Temp E_pair E_mol TotEng Press 
       0            0   -23790.076            0   -23790.076    476.97909 
       1            0   -23790.076            0   -23790.076    476.97909 
Loop time of 0.118248 on 40 procs for 1 steps with 16000 atoms

23.2% CPU use with 40 MPI tasks x no OpenMP threads

Minimization stats:
  Stopping criterion = energy tolerance
  Energy initial, next-to-last, final = 
        -23790.0759103     -23790.0759103     -23790.0759103
  Force two-norm initial, final = 4.22835e-13 4.27977e-13
  Force max component initial, final = 8.34402e-15 8.72566e-15
  Final line search alpha, max atom move = 1 8.72566e-15
  Iterations, force evaluations = 1 2

MPI task timing breakdown:
Section |  min time  |  avg time  |  max time  |%varavg| %total
---------------------------------------------------------------
Pair    | 0.014086   | 0.024678   | 0.038462   |   3.3 | 20.87
Neigh   | 0          | 0          | 0          |   0.0 |  0.00
Comm    | 0.0059178  | 0.020402   | 0.037894   |   4.2 | 17.25
Output  | 0          | 0          | 0          |   0.0 |  0.00
Modify  | 0          | 0          | 0          |   0.0 |  0.00
Other   |            | 0.07317    |            |       | 61.88

Nlocal:    400 ave 400 max 400 min
Histogram: 40 0 0 0 0 0 0 0 0 0
Nghost:    1958 ave 1958 max 1958 min
Histogram: 40 0 0 0 0 0 0 0 0 0
Neighs:    17600 ave 18072 max 17043 min
Histogram: 4 2 9 2 1 3 3 4 3 9

Total # of neighbors = 704000
Ave neighs/atom = 44
Neighbor list builds = 0
Dangerous builds = 0
@@@@  (energy per atom): 3.726 -1.48687974439238 25.864170588 0.0476979094388814 -1.47917980080677
Lattice spacing in x,y,z = 3.7255 3.7255 3.7255
Created orthogonal box = (0 0 0) to (74.51 74.51 74.51)
  2 by 4 by 5 MPI processor grid
Created 16000 atoms
  create_atoms CPU = 0.0319619 secs
WARNING: Using 'neigh_modify every 1 delay 0 check yes' setting during minimization (../min.cpp:190)
Neighbor list info ...
  update every 1 steps, delay 0 steps, check yes
  max neighbors/atom: 2000, page size: 100000
  master list distance cutoff = 8.3
  ghost atom cutoff = 8.3
  binsize = 4.15, bins = 18 18 18
  1 neighbor lists, perpetual/occasional/extra = 1 0 0
  (1) pair eam/fs, perpetual
      attributes: half, newton on
      pair build: half/bin/atomonly/newton
      stencil: half/bin/3d/newton
      bin: standard
Setting up sd style minimization ...
  Unit style    : metal
  Current step  : 0
Per MPI rank memory allocation (min/avg/max) = 4.536 | 4.537 | 4.537 Mbytes
Step Temp E_pair E_mol TotEng Press 
       0            0   -23790.021            0   -23790.021    571.85797 
       1            0   -23790.021            0   -23790.021    571.85797 
Loop time of 0.126245 on 40 procs for 1 steps with 16000 atoms

22.1% CPU use with 40 MPI tasks x no OpenMP threads

Minimization stats:
  Stopping criterion = energy tolerance
  Energy initial, next-to-last, final = 
        -23790.0213893     -23790.0213893     -23790.0213893
  Force two-norm initial, final = 1.3357e-12 1.30442e-12
  Force max component initial, final = 1.73195e-14 1.72917e-14
  Final line search alpha, max atom move = 1 1.72917e-14
  Iterations, force evaluations = 1 2

MPI task timing breakdown:
Section |  min time  |  avg time  |  max time  |%varavg| %total
---------------------------------------------------------------
Pair    | 0.02215    | 0.030945   | 0.047718   |   2.7 | 24.51
Neigh   | 0          | 0          | 0          |   0.0 |  0.00
Comm    | 0.011541   | 0.026449   | 0.036463   |   3.9 | 20.95
Output  | 0          | 0          | 0          |   0.0 |  0.00
Modify  | 0          | 0          | 0          |   0.0 |  0.00
Other   |            | 0.06885    |            |       | 54.54

Nlocal:    400 ave 400 max 400 min
Histogram: 40 0 0 0 0 0 0 0 0 0
Nghost:    1958 ave 1958 max 1958 min
Histogram: 40 0 0 0 0 0 0 0 0 0
Neighs:    17600 ave 18072 max 17043 min
Histogram: 4 2 9 2 1 3 3 4 3 9

Total # of neighbors = 704000
Ave neighs/atom = 44
Neighbor list builds = 0
Dangerous builds = 0
@@@@  (energy per atom): 3.7255 -1.48687633683281 25.8537596781875 0.0571857966939834 -1.47764846559184
Lattice spacing in x,y,z = 3.725 3.725 3.725
Created orthogonal box = (0 0 0) to (74.5 74.5 74.5)
  4 by 2 by 5 MPI processor grid
Created 16000 atoms
  create_atoms CPU = 0.024236 secs
WARNING: Using 'neigh_modify every 1 delay 0 check yes' setting during minimization (../min.cpp:190)
Neighbor list info ...
  update every 1 steps, delay 0 steps, check yes
  max neighbors/atom: 2000, page size: 100000
  master list distance cutoff = 8.3
  ghost atom cutoff = 8.3
  binsize = 4.15, bins = 18 18 18
  1 neighbor lists, perpetual/occasional/extra = 1 0 0
  (1) pair eam/fs, perpetual
      attributes: half, newton on
      pair build: half/bin/atomonly/newton
      stencil: half/bin/3d/newton
      bin: standard
Setting up sd style minimization ...
  Unit style    : metal
  Current step  : 0
Per MPI rank memory allocation (min/avg/max) = 4.536 | 4.537 | 4.537 Mbytes
Step Temp E_pair E_mol TotEng Press 
       0            0   -23789.957            0   -23789.957    666.89835 
       3            0   -23789.957            0   -23789.957    666.89835 
Loop time of 0.188951 on 40 procs for 3 steps with 16000 atoms

22.4% CPU use with 40 MPI tasks x no OpenMP threads

Minimization stats:
  Stopping criterion = energy tolerance
  Energy initial, next-to-last, final = 
        -23789.9570129     -23789.9570129     -23789.9570129
  Force two-norm initial, final = 1.37723e-12 1.37232e-12
  Force max component initial, final = 1.74041e-14 1.84745e-14
  Final line search alpha, max atom move = 1 1.84745e-14
  Iterations, force evaluations = 3 6

MPI task timing breakdown:
Section |  min time  |  avg time  |  max time  |%varavg| %total
---------------------------------------------------------------
Pair    | 0.040961   | 0.066278   | 0.090651   |   6.4 | 35.08
Neigh   | 0          | 0          | 0          |   0.0 |  0.00
Comm    | 0.029744   | 0.061801   | 0.089786   |   6.6 | 32.71
Output  | 0          | 0          | 0          |   0.0 |  0.00
Modify  | 0          | 0          | 0          |   0.0 |  0.00
Other   |            | 0.06087    |            |       | 32.22

Nlocal:    400 ave 400 max 400 min
Histogram: 40 0 0 0 0 0 0 0 0 0
Nghost:    1958 ave 1958 max 1958 min
Histogram: 40 0 0 0 0 0 0 0 0 0
Neighs:    17600 ave 18054 max 17097 min
Histogram: 8 2 6 1 3 1 3 1 7 8

Total # of neighbors = 704000
Ave neighs/atom = 44
Neighbor list builds = 0
Dangerous builds = 0
@@@@  (energy per atom): 3.725 -1.4868723133076 25.8433515625 0.0666898352167969 -1.47611514106626
Lattice spacing in x,y,z = 3.7245 3.7245 3.7245
Created orthogonal box = (0 0 0) to (74.49 74.49 74.49)
  2 by 4 by 5 MPI processor grid
Created 16000 atoms
  create_atoms CPU = 0.052424 secs
WARNING: Using 'neigh_modify every 1 delay 0 check yes' setting during minimization (../min.cpp:190)
Neighbor list info ...
  update every 1 steps, delay 0 steps, check yes
  max neighbors/atom: 2000, page size: 100000
  master list distance cutoff = 8.3
  ghost atom cutoff = 8.3
  binsize = 4.15, bins = 18 18 18
  1 neighbor lists, perpetual/occasional/extra = 1 0 0
  (1) pair eam/fs, perpetual
      attributes: half, newton on
      pair build: half/bin/atomonly/newton
      stencil: half/bin/3d/newton
      bin: standard
Setting up sd style minimization ...
  Unit style    : metal
  Current step  : 0
Per MPI rank memory allocation (min/avg/max) = 4.536 | 4.537 | 4.537 Mbytes
Step Temp E_pair E_mol TotEng Press 
       0            0   -23789.883            0   -23789.883    762.10044 
       2            0   -23789.883            0   -23789.883    762.10044 
Loop time of 0.161713 on 40 procs for 2 steps with 16000 atoms

22.6% CPU use with 40 MPI tasks x no OpenMP threads

Minimization stats:
  Stopping criterion = energy tolerance
  Energy initial, next-to-last, final = 
        -23789.8827696     -23789.8827696     -23789.8827696
  Force two-norm initial, final = 1.31855e-12 1.30875e-12
  Force max component initial, final = 1.71148e-14 1.69178e-14
  Final line search alpha, max atom move = 1 1.69178e-14
  Iterations, force evaluations = 2 4

MPI task timing breakdown:
Section |  min time  |  avg time  |  max time  |%varavg| %total
---------------------------------------------------------------
Pair    | 0.036907   | 0.047453   | 0.063285   |   3.3 | 29.34
Neigh   | 0          | 0          | 0          |   0.0 |  0.00
Comm    | 0.021797   | 0.03658    | 0.053761   |   4.2 | 22.62
Output  | 0          | 0          | 0          |   0.0 |  0.00
Modify  | 0          | 0          | 0          |   0.0 |  0.00
Other   |            | 0.07768    |            |       | 48.04

Nlocal:    400 ave 400 max 400 min
Histogram: 40 0 0 0 0 0 0 0 0 0
Nghost:    1958 ave 1958 max 1958 min
Histogram: 40 0 0 0 0 0 0 0 0 0
Neighs:    17600 ave 18072 max 17043 min
Histogram: 4 2 9 2 1 3 3 4 3 9

Total # of neighbors = 704000
Ave neighs/atom = 44
Neighbor list builds = 0
Dangerous builds = 0
@@@@  (energy per atom): 3.7245 -1.4868676730989 25.8329462405625 0.0762100440891236 -1.47457982608613
Lattice spacing in x,y,z = 3.724 3.724 3.724
Created orthogonal box = (0 0 0) to (74.48 74.48 74.48)
  2 by 4 by 5 MPI processor grid
Created 16000 atoms
  create_atoms CPU = 0.0150039 secs
WARNING: Using 'neigh_modify every 1 delay 0 check yes' setting during minimization (../min.cpp:190)
Neighbor list info ...
  update every 1 steps, delay 0 steps, check yes
  max neighbors/atom: 2000, page size: 100000
  master list distance cutoff = 8.3
  ghost atom cutoff = 8.3
  binsize = 4.15, bins = 18 18 18
  1 neighbor lists, perpetual/occasional/extra = 1 0 0
  (1) pair eam/fs, perpetual
      attributes: half, newton on
      pair build: half/bin/atomonly/newton
      stencil: half/bin/3d/newton
      bin: standard
Setting up sd style minimization ...
  Unit style    : metal
  Current step  : 0
Per MPI rank memory allocation (min/avg/max) = 4.536 | 4.537 | 4.537 Mbytes
Step Temp E_pair E_mol TotEng Press 
       0            0   -23789.799            0   -23789.799    857.46443 
       1            0   -23789.799            0   -23789.799    857.46443 
Loop time of 0.0548999 on 40 procs for 1 steps with 16000 atoms

22.3% CPU use with 40 MPI tasks x no OpenMP threads

Minimization stats:
  Stopping criterion = energy tolerance
  Energy initial, next-to-last, final = 
        -23789.7986478     -23789.7986478     -23789.7986478
  Force two-norm initial, final = 1.44617e-12 1.44461e-12
  Force max component initial, final = 1.7774e-14 1.80619e-14
  Final line search alpha, max atom move = 1 1.80619e-14
  Iterations, force evaluations = 1 2

MPI task timing breakdown:
Section |  min time  |  avg time  |  max time  |%varavg| %total
---------------------------------------------------------------
Pair    | 0.0079622  | 0.015337   | 0.023516   |   3.2 | 27.94
Neigh   | 0          | 0          | 0          |   0.0 |  0.00
Comm    | 0.0058811  | 0.015618   | 0.023832   |   3.8 | 28.45
Output  | 0          | 0          | 0          |   0.0 |  0.00
Modify  | 0          | 0          | 0          |   0.0 |  0.00
Other   |            | 0.02394    |            |       | 43.62

Nlocal:    400 ave 400 max 400 min
Histogram: 40 0 0 0 0 0 0 0 0 0
Nghost:    1958 ave 1958 max 1958 min
Histogram: 40 0 0 0 0 0 0 0 0 0
Neighs:    17600 ave 18072 max 17043 min
Histogram: 4 2 9 2 1 3 3 4 3 9

Total # of neighbors = 704000
Ave neighs/atom = 44
Neighbor list builds = 0
[...]
Loop time of 0.239641 on 40 procs for 3 steps with 16000 atoms

22.7% CPU use with 40 MPI tasks x no OpenMP threads

Minimization stats:
  Stopping criterion = energy tolerance
  Energy initial, next-to-last, final = 
        -12278.9683164     -12278.9683164     -12278.9683164
  Force two-norm initial, final = 4.08762e-12 4.05402e-12
  Force max component initial, final = 3.69843e-14 3.97182e-14
  Final line search alpha, max atom move = 1 3.97182e-14
  Iterations, force evaluations = 3 6

MPI task timing breakdown:
Section |  min time  |  avg time  |  max time  |%varavg| %total
---------------------------------------------------------------
Pair    | 0.041683   | 0.05973    | 0.085982   |   4.5 | 24.93
Neigh   | 0          | 0          | 0          |   0.0 |  0.00
Comm    | 0.030604   | 0.049735   | 0.072544   |   4.2 | 20.75
Output  | 0          | 0          | 0          |   0.0 |  0.00
Modify  | 0          | 0          | 0          |   0.0 |  0.00
Other   |            | 0.1302     |            |       | 54.32

Nlocal:    400 ave 400 max 400 min
Histogram: 40 0 0 0 0 0 0 0 0 0
Nghost:    2710 ave 2710 max 2710 min
Histogram: 40 0 0 0 0 0 0 0 0 0
Neighs:    33600 ave 34861 max 32349 min
Histogram: 12 0 4 0 5 2 1 0 8 8

Total # of neighbors = 1344000
Ave neighs/atom = 84
Neighbor list builds = 0
Dangerous builds = 0
@@@@  (energy per atom): 3.1775 -0.767435519777421 16.0408243046875 39.2560998111968 3.16284432116821
Lattice spacing in x,y,z = 3.177 3.177 3.177
Created orthogonal box = (0 0 0) to (63.54 63.54 63.54)
  2 by 4 by 5 MPI processor grid
Created 16000 atoms
  create_atoms CPU = 0.0153329 secs
WARNING: Using 'neigh_modify every 1 delay 0 check yes' setting during minimization (../min.cpp:190)
Neighbor list info ...
  update every 1 steps, delay 0 steps, check yes
  max neighbors/atom: 2000, page size: 100000
  master list distance cutoff = 8.3
  ghost atom cutoff = 8.3
  binsize = 4.15, bins = 16 16 16
  1 neighbor lists, perpetual/occasional/extra = 1 0 0
  (1) pair eam/fs, perpetual
      attributes: half, newton on
      pair build: half/bin/atomonly/newton
      stencil: half/bin/3d/newton
      bin: standard
Setting up sd style minimization ...
  Unit style    : metal
  Current step  : 0
Per MPI rank memory allocation (min/avg/max) = 4.579 | 4.579 | 4.579 Mbytes
Step Temp E_pair E_mol TotEng Press 
       0            0   -12249.255            0   -12249.255    393402.58 
       2            0   -12249.255            0   -12249.255    393402.58 
Loop time of 0.16056 on 40 procs for 2 steps with 16000 atoms

22.3% CPU use with 40 MPI tasks x no OpenMP threads

Minimization stats:
  Stopping criterion = energy tolerance
  Energy initial, next-to-last, final = 
        -12249.2553541     -12249.2553541     -12249.2553541
  Force two-norm initial, final = 3.61062e-12 3.58716e-12
  Force max component initial, final = 3.42105e-14 3.39416e-14
  Final line search alpha, max atom move = 1 3.39416e-14
  Iterations, force evaluations = 2 4

MPI task timing breakdown:
Section |  min time  |  avg time  |  max time  |%varavg| %total
---------------------------------------------------------------
Pair    | 0.028186   | 0.034056   | 0.040214   |   1.8 | 21.21
Neigh   | 0          | 0          | 0          |   0.0 |  0.00
Comm    | 0.025131   | 0.034417   | 0.050009   |   3.2 | 21.44
Output  | 0          | 0          | 0          |   0.0 |  0.00
Modify  | 0          | 0          | 0          |   0.0 |  0.00
Other   |            | 0.09209    |            |       | 57.35

Nlocal:    400 ave 400 max 400 min
Histogram: 40 0 0 0 0 0 0 0 0 0
Nghost:    2710 ave 2710 max 2710 min
Histogram: 40 0 0 0 0 0 0 0 0 0
Neighs:    33600 ave 33901 max 33299 min
Histogram: 5 5 0 0 10 10 0 0 5 5

Total # of neighbors = 1344000
Ave neighs/atom = 84
Neighbor list builds = 0
Dangerous builds = 0
@@@@  (energy per atom): 3.177 -0.765578459633973 16.0332531165 39.3402576942815 3.17126813174189
Lattice spacing in x,y,z = 3.1765 3.1765 3.1765
Created orthogonal box = (0 0 0) to (63.53 63.53 63.53)
  2 by 4 by 5 MPI processor grid
Created 16000 atoms
  create_atoms CPU = 0.0185878 secs
WARNING: Using 'neigh_modify every 1 delay 0 check yes' setting during minimization (../min.cpp:190)
Neighbor list info ...
  update every 1 steps, delay 0 steps, check yes
  max neighbors/atom: 2000, page size: 100000
  master list distance cutoff = 8.3
  ghost atom cutoff = 8.3
  binsize = 4.15, bins = 16 16 16
  1 neighbor lists, perpetual/occasional/extra = 1 0 0
  (1) pair eam/fs, perpetual
      attributes: half, newton on
      pair build: half/bin/atomonly/newton
      stencil: half/bin/3d/newton
      bin: standard
Setting up sd style minimization ...
  Unit style    : metal
  Current step  : 0
Per MPI rank memory allocation (min/avg/max) = 4.558 | 4.562 | 4.569 Mbytes
Step Temp E_pair E_mol TotEng Press 
       0            0   -12219.488            0   -12219.488    394245.39 
       8            0   -12219.488            0   -12219.488    394245.39 
Loop time of 0.536976 on 40 procs for 8 steps with 16000 atoms

22.5% CPU use with 40 MPI tasks x no OpenMP threads

Minimization stats:
  Stopping criterion = energy tolerance
  Energy initial, next-to-last, final = 
        -12219.4880852     -12219.4880852     -12219.4880852
  Force two-norm initial, final = 4.09745e-12 3.92022e-12
  Force max component initial, final = 3.61725e-14 5.38805e-14
  Final line search alpha, max atom move = 1 5.38805e-14
  Iterations, force evaluations = 8 16

MPI task timing breakdown:
Section |  min time  |  avg time  |  max time  |%varavg| %total
---------------------------------------------------------------
Pair    | 0.11073    | 0.13679    | 0.16989    |   4.0 | 25.47
Neigh   | 0          | 0          | 0          |   0.0 |  0.00
Comm    | 0.096321   | 0.13652    | 0.16115    |   4.2 | 25.42
Output  | 0          | 0          | 0          |   0.0 |  0.00
Modify  | 0          | 0          | 0          |   0.0 |  0.00
Other   |            | 0.2637     |            |       | 49.10

Nlocal:    400 ave 450 max 350 min
Histogram: 8 0 0 0 0 24 0 0 0 8
Nghost:    2710 ave 2760 max 2660 min
Histogram: 8 0 0 0 0 24 0 0 0 8
Neighs:    33600 ave 37102 max 30232 min
Histogram: 8 0 1 7 6 3 7 0 1 7

Total # of neighbors = 1344000
Ave neighs/atom = 84
Neighbor list builds = 0
Dangerous builds = 0
@@@@  (energy per atom): 3.1765 -0.763718005328067 16.0256843110625 39.4245392172791 3.17970033594218
Lattice spacing in x,y,z = 3.176 3.176 3.176
Created orthogonal box = (0 0 0) to (63.52 63.52 63.52)
  4 by 2 by 5 MPI processor grid
Created 16000 atoms
  create_atoms CPU = 0.015681 secs
WARNING: Using 'neigh_modify every 1 delay 0 check yes' setting during minimization (../min.cpp:190)
Neighbor list info ...
  update every 1 steps, delay 0 steps, check yes
  max neighbors/atom: 2000, page size: 100000
  master list distance cutoff = 8.3
  ghost atom cutoff = 8.3
  binsize = 4.15, bins = 16 16 16
  1 neighbor lists, perpetual/occasional/extra = 1 0 0
  (1) pair eam/fs, perpetual
      attributes: half, newton on
      pair build: half/bin/atomonly/newton
      stencil: half/bin/3d/newton
      bin: standard
Setting up sd style minimization ...
  Unit style    : metal
  Current step  : 0
Per MPI rank memory allocation (min/avg/max) = 4.579 | 4.579 | 4.579 Mbytes
Step Temp E_pair E_mol TotEng Press 
       0            0   -12189.666            0   -12189.666    395089.45 
       1            0   -12189.666            0   -12189.666    395089.45 
Loop time of 0.101173 on 40 procs for 1 steps with 16000 atoms

21.3% CPU use with 40 MPI tasks x no OpenMP threads

Minimization stats:
  Stopping criterion = energy tolerance
  Energy initial, next-to-last, final = 
        -12189.6664549     -12189.6664549     -12189.6664549
  Force two-norm initial, final = 2.62814e-12 2.61734e-12
  Force max component initial, final = 3.41949e-14 4.11537e-14
  Final line search alpha, max atom move = 1 4.11537e-14
  Iterations, force evaluations = 1 2

MPI task timing breakdown:
Section |  min time  |  avg time  |  max time  |%varavg| %total
---------------------------------------------------------------
Pair    | 0.017336   | 0.02372    | 0.031048   |   2.0 | 23.44
Neigh   | 0          | 0          | 0          |   0.0 |  0.00
Comm    | 0.0071912  | 0.022187   | 0.040421   |   4.4 | 21.93
Output  | 0          | 0          | 0          |   0.0 |  0.00
Modify  | 0          | 0          | 0          |   0.0 |  0.00
Other   |            | 0.05527    |            |       | 54.63

Nlocal:    400 ave 400 max 400 min
Histogram: 40 0 0 0 0 0 0 0 0 0
Nghost:    2710 ave 2710 max 2710 min
Histogram: 40 0 0 0 0 0 0 0 0 0
Neighs:    33600 ave 33796 max 33399 min
Histogram: 5 10 0 5 0 0 5 0 10 5

Total # of neighbors = 1344000
Ave neighs/atom = 84
Neighbor list builds = 0
Dangerous builds = 0
@@@@  (energy per atom): 3.176 -0.761854153430634 16.018117888 39.5089445149657 3.18814093681799
Lattice spacing in x,y,z = 3.1755 3.1755 3.1755
Created orthogonal box = (0 0 0) to (63.51 63.51 63.51)
  2 by 4 by 5 MPI processor grid
Created 16000 atoms
  create_atoms CPU = 0.0382569 secs
WARNING: Using 'neigh_modify every 1 delay 0 check yes' setting during minimization (../min.cpp:190)
Neighbor list info ...
  update every 1 steps, delay 0 steps, check yes
  max neighbors/atom: 2000, page size: 100000
  master list distance cutoff = 8.3
  ghost atom cutoff = 8.3
  binsize = 4.15, bins = 16 16 16
  1 neighbor lists, perpetual/occasional/extra = 1 0 0
  (1) pair eam/fs, perpetual
      attributes: half, newton on
      pair build: half/bin/atomonly/newton
      stencil: half/bin/3d/newton
      bin: standard
Setting up sd style minimization ...
  Unit style    : metal
  Current step  : 0
Per MPI rank memory allocation (min/avg/max) = 4.579 | 4.579 | 4.579 Mbytes
Step Temp E_pair E_mol TotEng Press 
       0            0    -12159.79            0    -12159.79    395934.74 
       2            0    -12159.79            0    -12159.79    395934.74 
Loop time of 0.125605 on 40 procs for 2 steps with 16000 atoms

22.9% CPU use with 40 MPI tasks x no OpenMP threads

Minimization stats:
  Stopping criterion = energy tolerance
  Energy initial, next-to-last, final = 
        -12159.7904082     -12159.7904082     -12159.7904082
  Force two-norm initial, final = 8.88429e-13 9.15323e-13
  Force max component initial, final = 1.73195e-14 1.73195e-14
  Final line search alpha, max atom move = 1 1.73195e-14
  Iterations, force evaluations = 2 4

MPI task timing breakdown:
Section |  min time  |  avg time  |  max time  |%varavg| %total
---------------------------------------------------------------
Pair    | 0.022685   | 0.038542   | 0.063936   |   4.7 | 30.69
Neigh   | 0          | 0          | 0          |   0.0 |  0.00
Comm    | 0.015727   | 0.037761   | 0.054358   |   4.0 | 30.06
Output  | 0          | 0          | 0          |   0.0 |  0.00
Modify  | 0          | 0          | 0          |   0.0 |  0.00
Other   |            | 0.0493     |            |       | 39.25

Nlocal:    400 ave 400 max 400 min
Histogram: 40 0 0 0 0 0 0 0 0 0
Nghost:    2710 ave 2710 max 2710 min
Histogram: 40 0 0 0 0 0 0 0 0 0
Neighs:    33600 ave 33901 max 33299 min
Histogram: 5 5 0 0 10 10 0 0 5 5

Total # of neighbors = 1344000
Ave neighs/atom = 84
Neighbor list builds = 0
Dangerous builds = 0
@@@@  (energy per atom): 3.1755 -0.759986900513539 16.0105538469375 39.5934736461045 3.19658992980607
Lattice spacing in x,y,z = 3.175 3.175 3.175
Created orthogonal box = (0 0 0) to (63.5 63.5 63.5)
  2 by 4 by 5 MPI processor grid
Created 16000 atoms
  create_atoms CPU = 0.023144 secs
WARNING: Using 'neigh_modify every 1 delay 0 check yes' setting during minimization (../min.cpp:190)
Neighbor list info ...
  update every 1 steps, delay 0 steps, check yes
  max neighbors/atom: 2000, page size: 100000
  master list distance cutoff = 8.3
  ghost atom cutoff = 8.3
  binsize = 4.15, bins = 16 16 16
  1 neighbor lists, perpetual/occasional/extra = 1 0 0
  (1) pair eam/fs, perpetual
      attributes: half, newton on
      pair build: half/bin/atomonly/newton
      stencil: half/bin/3d/newton
      bin: standard
Setting up sd style minimization ...
  Unit style    : metal
  Current step  : 0
Per MPI rank memory allocation (min/avg/max) = 4.558 | 4.562 | 4.569 Mbytes
Step Temp E_pair E_mol TotEng Press 
       0            0    -12129.86            0    -12129.86    396781.29 
       7            0    -12129.86            0    -12129.86    396781.29 
Loop time of 0.500233 on 40 procs for 7 steps with 16000 atoms

22.4% CPU use with 40 MPI tasks x no OpenMP threads

Minimization stats:
  Stopping criterion = energy tolerance
  Energy initial, next-to-last, final = 
        -12129.8598898     -12129.8598898     -12129.8598898
  Force two-norm initial, final = 3.54199e-12 3.2634e-12
  Force max component initial, final = 4.42285e-14 7.70287e-14
  Final line search alpha, max atom move = 1 7.70287e-14
  Iterations, force evaluations = 7 14

MPI task timing breakdown:
Section |  min time  |  avg time  |  max time  |%varavg| %total
---------------------------------------------------------------
Pair    | 0.099513   | 0.12385    | 0.14062    |   2.5 | 24.76
Neigh   | 0          | 0          | 0          |   0.0 |  0.00
Comm    | 0.12057    | 0.15709    | 0.19951    |   4.6 | 31.40
Output  | 0          | 0          | 0          |   0.0 |  0.00
Modify  | 0          | 0          | 0          |   0.0 |  0.00
Other   |            | 0.2193     |            |       | 43.84

Nlocal:    400 ave 450 max 350 min
Histogram: 8 0 0 0 0 24 0 0 0 8
Nghost:    2710 ave 2760 max 2660 min
Histogram: 8 0 0 0 0 24 0 0 0 8
Neighs:    33600 ave 37102 max 30232 min
Histogram: 8 0 1 7 6 3 7 0 1 7

Total # of neighbors = 1344000
Ave neighs/atom = 84
Neighbor list builds = 0
Dangerous builds = 0
@@@@  (energy per atom): 3.175 -0.758116243110022 16.0029921875 39.6781293159694 3.20504757472199
Lattice spacing in x,y,z = 3.1745 3.1745 3.1745
Created orthogonal box = (0 0 0) to (63.49 63.49 63.49)
  2 by 4 by 5 MPI processor grid
Created 16000 atoms
  create_atoms CPU = 0.021606 secs
WARNING: Using 'neigh_modify every 1 delay 0 check yes' setting during minimization (../min.cpp:190)
Neighbor list info ...
  update every 1 steps, delay 0 steps, check yes
  max neighbors/atom: 2000, page size: 100000
  master list distance cutoff = 8.3
  ghost atom cutoff = 8.3
  binsize = 4.15, bins = 16 16 16
  1 neighbor lists, perpetual/occasional/extra = 1 0 0
  (1) pair eam/fs, perpetual
      attributes: half, newton on
      pair build: half/bin/atomonly/newton
      stencil: half/bin/3d/newton
      bin: standard
Setting up sd style minimization ...
  Unit style    : metal
  Current step  : 0
Per MPI rank memory allocation (min/avg/max) = 4.579 | 4.579 | 4.579 Mbytes
Step Temp E_pair E_mol TotEng Press 
       0            0   -12099.875            0   -12099.875    397629.16 
       3            0   -12099.875            0   -12099.875    397629.16 
Loop time of 0.240065 on 40 procs for 3 steps with 16000 atoms

22.4% CPU use with 40 MPI tasks x no OpenMP threads

Minimization stats:
  Stopping criterion = energy tolerance
  Energy initial, next-to-last, final = 
        -12099.8748407     -12099.8748407     -12099.8748407
  Force two-norm initial, final = 4.00346e-12 3.9987e-12
  Force max component initial, final = 3.67067e-14 4.15362e-14
  Final line search alpha, max atom move = 1 4.15362e-14
  Iterations, force evaluations = 3 6

MPI task timing breakdown:
Section |  min time  |  avg time  |  max time  |%varavg| %total
---------------------------------------------------------------
Pair    | 0.040447   | 0.060733   | 0.085716   |   3.9 | 25.30
Neigh   | 0          | 0          | 0          |   0.0 |  0.00
Comm    | 0.050924   | 0.077088   | 0.099108   |   4.3 | 32.11
Output  | 0          | 0          | 0          |   0.0 |  0.00
Modify  | 0          | 0          | 0          |   0.0 |  0.00
Other   |            | 0.1022     |            |       | 42.59

Nlocal:    400 ave 400 max 400 min
Histogram: 40 0 0 0 0 0 0 0 0 0
Nghost:    2710 ave 2710 max 2710 min
Histogram: 40 0 0 0 0 0 0 0 0 0
Neighs:    33600 ave 33901 max 33299 min
Histogram: 5 5 0 0 10 10 0 0 5 5

Total # of neighbors = 1344000
Ave neighs/atom = 84
Neighbor list builds = 0
Dangerous builds = 0
@@@@  (energy per atom): 3.1745 -0.756242177544099 15.9954329093125 39.7629159891747 3.21351430673508
Lattice spacing in x,y,z = 3.174 3.174 3.174
Created orthogonal box = (0 0 0) to (63.48 63.48 63.48)
  2 by 4 by 5 MPI processor grid
Created 16000 atoms
  create_atoms CPU = 0.0172369 secs
WARNING: Using 'neigh_modify every 1 delay 0 check yes' setting during minimization (../min.cpp:190)
Neighbor list info ...
  update every 1 steps, delay 0 steps, check yes
  max neighbors/atom: 2000, page size: 100000
  master list distance cutoff = 8.3
  ghost atom cutoff = 8.3
  binsize = 4.15, bins = 16 16 16
  1 neighbor lists, perpetual/occasional/extra = 1 0 0
  (1) pair eam/fs, perpetual
      attributes: half, newton on
      pair build: half/bin/atomonly/newton
      stencil: half/bin/3d/newton
      bin: standard
Setting up sd style minimization ...
  Unit style    : metal
  Current step  : 0
Per MPI rank memory allocation (min/avg/max) = 4.579 | 4.579 | 4.579 Mbytes
Step Temp E_pair E_mol TotEng Press 
       0            0   -12069.835            0   -12069.835    398478.34 
       1            0   -12069.835            0   -12069.835    398478.34 
Loop time of 0.0682106 on 40 procs for 1 steps with 16000 atoms

24.0% CPU use with 40 MPI tasks x no OpenMP threads

Minimization stats:
  Stopping criterion = energy tolerance
  Energy initial, next-to-last, final = 
        -12069.8352009     -12069.8352009     -12069.8352009
  Force two-norm initial, final = 3.7869e-12 3.75812e-12
  Force max component initial, final = 3.66512e-14 3.73035e-14
  Final line search alpha, max atom move = 1 3.73035e-14
  Iterations, force evaluations = 1 2

MPI task timing breakdown:
Section |  min time  |  avg time  |  max time  |%varavg| %total
---------------------------------------------------------------
Pair    | 0.011765   | 0.018191   | 0.022654   |   2.2 | 26.67
Neigh   | 0          | 0          | 0          |   0.0 |  0.00
Comm    | 0.0076282  | 0.015128   | 0.029527   |   4.0 | 22.18
Output  | 0          | 0          | 0          |   0.0 |  0.00
Modify  | 0          | 0          | 0          |   0.0 |  0.00
Other   |            | 0.03489    |            |       | 51.15

Nlocal:    400 ave 400 max 400 min
Histogram: 40 0 0 0 0 0 0 0 0 0
Nghost:    2710 ave 2710 max 2710 min
Histogram: 40 0 0 0 0 0 0 0 0 0
Neighs:    33600 ave 34861 max 32349 min
Histogram: 12 0 4 0 5 2 1 0 8 8

Total # of neighbors = 1344000
Ave neighs/atom = 84
Neighbor list builds = 0
Dangerous builds = 0
@@@@  (energy per atom): 3.174 -0.754364700053354 15.987876012 39.84783392279 3.22199014040482
Lattice spacing in x,y,z = 3.1735 3.1735 3.1735
Created orthogonal box = (0 0 0) to (63.47 63.47 63.47)
  2 by 4 by 5 MPI processor grid
Created 16000 atoms
  create_atoms CPU = 0.0331371 secs
WARNING: Using 'neigh_modify every 1 delay 0 check yes' setting during minimization (../min.cpp:190)
Neighbor list info ...
  update every 1 steps, delay 0 steps, check yes
  max neighbors/atom: 2000, page size: 100000
  master list distance cutoff = 8.3
  ghost atom cutoff = 8.3
  binsize = 4.15, bins = 16 16 16
  1 neighbor lists, perpetual/occasional/extra = 1 0 0
  (1) pair eam/fs, perpetual
      attributes: half, newton on
      pair build: half/bin/atomonly/newton
      stencil: half/bin/3d/newton
      bin: standard
Setting up sd style minimization ...
  Unit style    : metal
  Current step  : 0
Per MPI rank memory allocation (min/avg/max) = 4.558 | 4.566 | 4.569 Mbytes
Step Temp E_pair E_mol TotEng Press 
       0            0   -12039.741            0   -12039.741    399328.83 
