LAMMPS (3 Mar 2020)
Lattice spacing in x,y,z = 4.6995 4.6995 4.6995
Created orthogonal box = (0 0 0) to (93.99 93.99 93.99)
  4 by 2 by 5 MPI processor grid
Created 32000 atoms
  create_atoms CPU = 0.0411458 secs
WARNING: Using 'neigh_modify every 1 delay 0 check yes' setting during minimization (../min.cpp:190)
Neighbor list info ...
  update every 1 steps, delay 0 steps, check yes
  max neighbors/atom: 2000, page size: 100000
  master list distance cutoff = 8.3
  ghost atom cutoff = 8.3
  binsize = 4.15, bins = 23 23 23
  1 neighbor lists, perpetual/occasional/extra = 1 0 0
  (1) pair eam/fs, perpetual
      attributes: half, newton on
      pair build: half/bin/atomonly/newton
      stencil: half/bin/3d/newton
      bin: standard
Setting up sd style minimization ...
  Unit style    : metal
  Current step  : 0
Per MPI rank memory allocation (min/avg/max) = 4.561 | 4.57 | 4.577 Mbytes
Step Temp E_pair E_mol TotEng Press 
       0            0   -48852.712            0   -48852.712   -859.79315 
       1            0   -48852.712            0   -48852.712   -859.79315 
Loop time of 0.0955883 on 40 procs for 1 steps with 32000 atoms

28.7% CPU use with 40 MPI tasks x no OpenMP threads

Minimization stats:
  Stopping criterion = energy tolerance
  Energy initial, next-to-last, final = 
        -48852.7121985     -48852.7121985     -48852.7121985
  Force two-norm initial, final = 7.98908e-13 8.07621e-13
  Force max component initial, final = 9.96946e-15 1.00614e-14
  Final line search alpha, max atom move = 1 1.00614e-14
  Iterations, force evaluations = 1 2

MPI task timing breakdown:
Section |  min time  |  avg time  |  max time  |%varavg| %total
---------------------------------------------------------------
Pair    | 0.012594   | 0.017315   | 0.02713    |   2.2 | 18.11
Neigh   | 0          | 0          | 0          |   0.0 |  0.00
Comm    | 0.015004   | 0.025134   | 0.033127   |   2.9 | 26.29
Output  | 0          | 0          | 0          |   0.0 |  0.00
Modify  | 0          | 0          | 0          |   0.0 |  0.00
Other   |            | 0.05314    |            |       | 55.59

Nlocal:    800 ave 900 max 700 min
Histogram: 8 0 0 0 0 24 0 0 0 8
Nghost:    2642 ave 2742 max 2542 min
Histogram: 8 0 0 0 0 24 0 0 0 8
Neighs:    34400 ave 38700 max 30100 min
Histogram: 8 0 0 0 8 16 0 0 0 8

Total # of neighbors = 1376000
Ave neighs/atom = 43
Neighbor list builds = 0
Dangerous builds = 0
@@@@  (energy per atom): 4.6995 -1.52664725620228 25.9474671312187 -0.0859793147406361 -1.54057172359521
Lattice spacing in x,y,z = 4.699 4.699 4.699
Created orthogonal box = (0 0 0) to (93.98 93.98 93.98)
  2 by 4 by 5 MPI processor grid
Created 32000 atoms
  create_atoms CPU = 0.0199621 secs
WARNING: Using 'neigh_modify every 1 delay 0 check yes' setting during minimization (../min.cpp:190)
Neighbor list info ...
  update every 1 steps, delay 0 steps, check yes
  max neighbors/atom: 2000, page size: 100000
  master list distance cutoff = 8.3
  ghost atom cutoff = 8.3
  binsize = 4.15, bins = 23 23 23
  1 neighbor lists, perpetual/occasional/extra = 1 0 0
  (1) pair eam/fs, perpetual
      attributes: half, newton on
      pair build: half/bin/atomonly/newton
      stencil: half/bin/3d/newton
      bin: standard
Setting up sd style minimization ...
  Unit style    : metal
  Current step  : 0
Per MPI rank memory allocation (min/avg/max) = 4.577 | 4.577 | 4.577 Mbytes
Step Temp E_pair E_mol TotEng Press 
       0            0   -48852.848            0   -48852.848    -778.6578 
       1            0   -48852.848            0   -48852.848    -778.6578 
Loop time of 0.108697 on 40 procs for 1 steps with 32000 atoms

29.1% CPU use with 40 MPI tasks x no OpenMP threads

Minimization stats:
  Stopping criterion = energy tolerance
  Energy initial, next-to-last, final = 
        -48852.8476982     -48852.8476982     -48852.8476982
  Force two-norm initial, final = 3.2898e-12 3.26022e-12
  Force max component initial, final = 2.05157e-14 2.18575e-14
  Final line search alpha, max atom move = 1 2.18575e-14
  Iterations, force evaluations = 1 2

MPI task timing breakdown:
Section |  min time  |  avg time  |  max time  |%varavg| %total
---------------------------------------------------------------
Pair    | 0.024417   | 0.037595   | 0.048092   |   2.6 | 34.59
Neigh   | 0          | 0          | 0          |   0.0 |  0.00
Comm    | 0.014974   | 0.025348   | 0.046135   |   4.0 | 23.32
Output  | 0          | 0          | 0          |   0.0 |  0.00
Modify  | 0          | 0          | 0          |   0.0 |  0.00
Other   |            | 0.04575    |            |       | 42.09

Nlocal:    800 ave 800 max 800 min
Histogram: 40 0 0 0 0 0 0 0 0 0
Nghost:    2642 ave 2642 max 2642 min
Histogram: 40 0 0 0 0 0 0 0 0 0
Neighs:    34400 ave 35379 max 33430 min
Histogram: 4 8 4 2 2 2 2 4 8 4

Total # of neighbors = 1376000
Ave neighs/atom = 43
Neighbor list builds = 0
Dangerous builds = 0
@@@@  (energy per atom): 4.699 -1.52665149057015 25.93918602475 -0.0778657796302343 -1.5392579352583
Lattice spacing in x,y,z = 4.6985 4.6985 4.6985
Created orthogonal box = (0 0 0) to (93.97 93.97 93.97)
  2 by 4 by 5 MPI processor grid
Created 32000 atoms
  create_atoms CPU = 0.035893 secs
WARNING: Using 'neigh_modify every 1 delay 0 check yes' setting during minimization (../min.cpp:190)
Neighbor list info ...
  update every 1 steps, delay 0 steps, check yes
  max neighbors/atom: 2000, page size: 100000
  master list distance cutoff = 8.3
  ghost atom cutoff = 8.3
  binsize = 4.15, bins = 23 23 23
  1 neighbor lists, perpetual/occasional/extra = 1 0 0
  (1) pair eam/fs, perpetual
      attributes: half, newton on
      pair build: half/bin/atomonly/newton
      stencil: half/bin/3d/newton
      bin: standard
Setting up sd style minimization ...
  Unit style    : metal
  Current step  : 0
Per MPI rank memory allocation (min/avg/max) = 4.577 | 4.577 | 4.577 Mbytes
Step Temp E_pair E_mol TotEng Press 
       0            0    -48852.97            0    -48852.97   -697.37848 
       1            0    -48852.97            0    -48852.97   -697.37848 
Loop time of 0.121044 on 40 procs for 1 steps with 32000 atoms

29.7% CPU use with 40 MPI tasks x no OpenMP threads

Minimization stats:
  Stopping criterion = energy tolerance
  Energy initial, next-to-last, final = 
        -48852.9697406     -48852.9697406     -48852.9697406
  Force two-norm initial, final = 2.26544e-12 2.24484e-12
  Force max component initial, final = 1.97151e-14 1.98149e-14
  Final line search alpha, max atom move = 1 1.98149e-14
  Iterations, force evaluations = 1 2

MPI task timing breakdown:
Section |  min time  |  avg time  |  max time  |%varavg| %total
---------------------------------------------------------------
Pair    | 0.018138   | 0.025975   | 0.034123   |   2.9 | 21.46
Neigh   | 0          | 0          | 0          |   0.0 |  0.00
Comm    | 0.0088952  | 0.029224   | 0.048296   |   5.7 | 24.14
Output  | 0          | 0          | 0          |   0.0 |  0.00
Modify  | 0          | 0          | 0          |   0.0 |  0.00
Other   |            | 0.06584    |            |       | 54.40

Nlocal:    800 ave 800 max 800 min
Histogram: 40 0 0 0 0 0 0 0 0 0
Nghost:    2642 ave 2642 max 2642 min
Histogram: 40 0 0 0 0 0 0 0 0 0
Neighs:    34400 ave 35379 max 33430 min
Histogram: 4 8 4 2 2 2 2 4 8 4

Total # of neighbors = 1376000
Ave neighs/atom = 43
Neighbor list builds = 0
Dangerous builds = 0
@@@@  (energy per atom): 4.6985 -1.52665530439279 25.9309066804062 -0.0697378482821583 -1.53794223586318
Lattice spacing in x,y,z = 4.698 4.698 4.698
Created orthogonal box = (0 0 0) to (93.96 93.96 93.96)
  4 by 2 by 5 MPI processor grid
Created 32000 atoms
  create_atoms CPU = 0.0134528 secs
WARNING: Using 'neigh_modify every 1 delay 0 check yes' setting during minimization (../min.cpp:190)
Neighbor list info ...
  update every 1 steps, delay 0 steps, check yes
  max neighbors/atom: 2000, page size: 100000
  master list distance cutoff = 8.3
  ghost atom cutoff = 8.3
  binsize = 4.15, bins = 23 23 23
  1 neighbor lists, perpetual/occasional/extra = 1 0 0
  (1) pair eam/fs, perpetual
      attributes: half, newton on
      pair build: half/bin/atomonly/newton
      stencil: half/bin/3d/newton
      bin: standard
Setting up sd style minimization ...
  Unit style    : metal
  Current step  : 0
Per MPI rank memory allocation (min/avg/max) = 4.577 | 4.577 | 4.577 Mbytes
Step Temp E_pair E_mol TotEng Press 
       0            0   -48853.078            0   -48853.078   -615.95575 
       1            0   -48853.078            0   -48853.078   -615.95575 
Loop time of 0.138333 on 40 procs for 1 steps with 32000 atoms

25.2% CPU use with 40 MPI tasks x no OpenMP threads

Minimization stats:
  Stopping criterion = energy tolerance
  Energy initial, next-to-last, final = 
        -48853.0783074     -48853.0783074     -48853.0783074
  Force two-norm initial, final = 2.59596e-12 2.59199e-12
  Force max component initial, final = 1.98765e-14 2.05842e-14
  Final line search alpha, max atom move = 1 2.05842e-14
  Iterations, force evaluations = 1 2

MPI task timing breakdown:
Section |  min time  |  avg time  |  max time  |%varavg| %total
---------------------------------------------------------------
Pair    | 0.01249    | 0.030017   | 0.042373   |   3.7 | 21.70
Neigh   | 0          | 0          | 0          |   0.0 |  0.00
Comm    | 0.017604   | 0.031008   | 0.047202   |   3.8 | 22.42
Output  | 0          | 0          | 0          |   0.0 |  0.00
Modify  | 0          | 0          | 0          |   0.0 |  0.00
Other   |            | 0.07731    |            |       | 55.89

Nlocal:    800 ave 800 max 800 min
Histogram: 40 0 0 0 0 0 0 0 0 0
Nghost:    2642 ave 2642 max 2642 min
Histogram: 40 0 0 0 0 0 0 0 0 0
Neighs:    34400 ave 35115 max 33685 min
Histogram: 16 0 0 0 0 8 0 0 0 16

Total # of neighbors = 1376000
Ave neighs/atom = 43
Neighbor list builds = 0
Dangerous builds = 0
@@@@  (energy per atom): 4.698 -1.52665869710749 25.922629098 -0.0615955748208965 -1.53662463556783
Lattice spacing in x,y,z = 4.6975 4.6975 4.6975
Created orthogonal box = (0 0 0) to (93.95 93.95 93.95)
  2 by 4 by 5 MPI processor grid
Created 32000 atoms
  create_atoms CPU = 0.03597 secs
WARNING: Using 'neigh_modify every 1 delay 0 check yes' setting during minimization (../min.cpp:190)
Neighbor list info ...
  update every 1 steps, delay 0 steps, check yes
  max neighbors/atom: 2000, page size: 100000
  master list distance cutoff = 8.3
  ghost atom cutoff = 8.3
  binsize = 4.15, bins = 23 23 23
  1 neighbor lists, perpetual/occasional/extra = 1 0 0
  (1) pair eam/fs, perpetual
      attributes: half, newton on
      pair build: half/bin/atomonly/newton
      stencil: half/bin/3d/newton
      bin: standard
Setting up sd style minimization ...
  Unit style    : metal
  Current step  : 0
Per MPI rank memory allocation (min/avg/max) = 4.577 | 4.577 | 4.577 Mbytes
Step Temp E_pair E_mol TotEng Press 
       0            0   -48853.173            0   -48853.173   -534.38944 
       1            0   -48853.173            0   -48853.173   -534.38944 
Loop time of 0.123322 on 40 procs for 1 steps with 32000 atoms

22.6% CPU use with 40 MPI tasks x no OpenMP threads

Minimization stats:
  Stopping criterion = energy tolerance
  Energy initial, next-to-last, final = 
        -48853.1733808     -48853.1733808     -48853.1733808
  Force two-norm initial, final = 2.84281e-12 2.83628e-12
  Force max component initial, final = 1.97646e-14 2.25861e-14
  Final line search alpha, max atom move = 1 2.25861e-14
  Iterations, force evaluations = 1 2

MPI task timing breakdown:
Section |  min time  |  avg time  |  max time  |%varavg| %total
---------------------------------------------------------------
Pair    | 0.030757   | 0.041101   | 0.054166   |   2.6 | 33.33
Neigh   | 0          | 0          | 0          |   0.0 |  0.00
Comm    | 0.010423   | 0.024697   | 0.037972   |   4.3 | 20.03
Output  | 0          | 0          | 0          |   0.0 |  0.00
Modify  | 0          | 0          | 0          |   0.0 |  0.00
Other   |            | 0.05752    |            |       | 46.65

Nlocal:    800 ave 800 max 800 min
Histogram: 40 0 0 0 0 0 0 0 0 0
Nghost:    2642 ave 2642 max 2642 min
Histogram: 40 0 0 0 0 0 0 0 0 0
Neighs:    34400 ave 35115 max 33685 min
Histogram: 16 0 0 0 0 8 0 0 0 16

Total # of neighbors = 1376000
Ave neighs/atom = 43
Neighbor list builds = 0
Dangerous builds = 0
@@@@  (energy per atom): 4.6975 -1.52666166815055 25.9143532773437 -0.0534389435569521 -1.53530513322511
Lattice spacing in x,y,z = 4.697 4.697 4.697
Created orthogonal box = (0 0 0) to (93.94 93.94 93.94)
  2 by 4 by 5 MPI processor grid
Created 32000 atoms
  create_atoms CPU = 0.0195169 secs
WARNING: Using 'neigh_modify every 1 delay 0 check yes' setting during minimization (../min.cpp:190)
Neighbor list info ...
  update every 1 steps, delay 0 steps, check yes
  max neighbors/atom: 2000, page size: 100000
  master list distance cutoff = 8.3
  ghost atom cutoff = 8.3
  binsize = 4.15, bins = 23 23 23
  1 neighbor lists, perpetual/occasional/extra = 1 0 0
  (1) pair eam/fs, perpetual
      attributes: half, newton on
      pair build: half/bin/atomonly/newton
      stencil: half/bin/3d/newton
      bin: standard
Setting up sd style minimization ...
  Unit style    : metal
  Current step  : 0
Per MPI rank memory allocation (min/avg/max) = 4.577 | 4.577 | 4.577 Mbytes
Step Temp E_pair E_mol TotEng Press 
       0            0   -48853.255            0   -48853.255   -452.67943 
       1            0   -48853.255            0   -48853.255   -452.67943 
Loop time of 0.0853929 on 40 procs for 1 steps with 32000 atoms

22.5% CPU use with 40 MPI tasks x no OpenMP threads

Minimization stats:
  Stopping criterion = energy tolerance
  Energy initial, next-to-last, final = 
        -48853.2549428     -48853.2549428     -48853.2549428
  Force two-norm initial, final = 1.83764e-12 1.81012e-12
  Force max component initial, final = 1.99805e-14 2.02876e-14
  Final line search alpha, max atom move = 1 2.02876e-14
  Iterations, force evaluations = 1 2

MPI task timing breakdown:
Section |  min time  |  avg time  |  max time  |%varavg| %total
---------------------------------------------------------------
Pair    | 0.024333   | 0.034887   | 0.043975   |   2.2 | 40.86
Neigh   | 0          | 0          | 0          |   0.0 |  0.00
Comm    | 0.0094266  | 0.016484   | 0.03063    |   3.5 | 19.30
Output  | 0          | 0          | 0          |   0.0 |  0.00
Modify  | 0          | 0          | 0          |   0.0 |  0.00
Other   |            | 0.03402    |            |       | 39.84

Nlocal:    800 ave 800 max 800 min
Histogram: 40 0 0 0 0 0 0 0 0 0
Nghost:    2642 ave 2642 max 2642 min
Histogram: 40 0 0 0 0 0 0 0 0 0
Neighs:    34400 ave 35115 max 33685 min
Histogram: 16 0 0 0 0 8 0 0 0 16

Total # of neighbors = 1376000
Ave neighs/atom = 43
Neighbor list builds = 0
Dangerous builds = 0
@@@@  (energy per atom): 4.697 -1.52666421696106 25.90607921825 -0.0452679427966255 -1.5339837283391
Lattice spacing in x,y,z = 4.6965 4.6965 4.6965
Created orthogonal box = (0 0 0) to (93.93 93.93 93.93)
  2 by 4 by 5 MPI processor grid
Created 32000 atoms
  create_atoms CPU = 0.0429521 secs
WARNING: Using 'neigh_modify every 1 delay 0 check yes' setting during minimization (../min.cpp:190)
Neighbor list info ...
  update every 1 steps, delay 0 steps, check yes
  max neighbors/atom: 2000, page size: 100000
  master list distance cutoff = 8.3
  ghost atom cutoff = 8.3
  binsize = 4.15, bins = 23 23 23
  1 neighbor lists, perpetual/occasional/extra = 1 0 0
  (1) pair eam/fs, perpetual
      attributes: half, newton on
      pair build: half/bin/atomonly/newton
      stencil: half/bin/3d/newton
      bin: standard
Setting up sd style minimization ...
  Unit style    : metal
  Current step  : 0
Per MPI rank memory allocation (min/avg/max) = 4.577 | 4.577 | 4.577 Mbytes
Step Temp E_pair E_mol TotEng Press 
       0            0   -48853.323            0   -48853.323   -370.82562 
       1            0   -48853.323            0   -48853.323   -370.82562 
Loop time of 0.0791789 on 40 procs for 1 steps with 32000 atoms

23.6% CPU use with 40 MPI tasks x no OpenMP threads

Minimization stats:
  Stopping criterion = energy tolerance
  Energy initial, next-to-last, final = 
        -48853.3229752     -48853.3229752     -48853.3229752
  Force two-norm initial, final = 2.3041e-12 2.32594e-12
  Force max component initial, final = 1.97793e-14 3.65194e-14
  Final line search alpha, max atom move = 1 3.65194e-14
  Iterations, force evaluations = 1 2

MPI task timing breakdown:
Section |  min time  |  avg time  |  max time  |%varavg| %total
---------------------------------------------------------------
Pair    | 0.010454   | 0.015919   | 0.027922   |   2.9 | 20.10
Neigh   | 0          | 0          | 0          |   0.0 |  0.00
Comm    | 0.013185   | 0.024132   | 0.040436   |   4.0 | 30.48
Output  | 0          | 0          | 0          |   0.0 |  0.00
Modify  | 0          | 0          | 0          |   0.0 |  0.00
Other   |            | 0.03913    |            |       | 49.42

Nlocal:    800 ave 800 max 800 min
Histogram: 40 0 0 0 0 0 0 0 0 0
Nghost:    2642 ave 2642 max 2642 min
Histogram: 40 0 0 0 0 0 0 0 0 0
Neighs:    34400 ave 35115 max 33685 min
Histogram: 16 0 0 0 0 8 0 0 0 16

Total # of neighbors = 1376000
Ave neighs/atom = 43
Neighbor list builds = 0
Dangerous builds = 0
@@@@  (energy per atom): 4.6965 -1.52666634297595 25.8978069205313 -0.0370825619569024 -1.53266042059273
Lattice spacing in x,y,z = 4.696 4.696 4.696
Created orthogonal box = (0 0 0) to (93.92 93.92 93.92)
  2 by 4 by 5 MPI processor grid
Created 32000 atoms
  create_atoms CPU = 0.0298378 secs
WARNING: Using 'neigh_modify every 1 delay 0 check yes' setting during minimization (../min.cpp:190)
Neighbor list info ...
  update every 1 steps, delay 0 steps, check yes
  max neighbors/atom: 2000, page size: 100000
  master list distance cutoff = 8.3
  ghost atom cutoff = 8.3
  binsize = 4.15, bins = 23 23 23
  1 neighbor lists, perpetual/occasional/extra = 1 0 0
  (1) pair eam/fs, perpetual
      attributes: half, newton on
      pair build: half/bin/atomonly/newton
      stencil: half/bin/3d/newton
      bin: standard
Setting up sd style minimization ...
  Unit style    : metal
  Current step  : 0
Per MPI rank memory allocation (min/avg/max) = 4.577 | 4.577 | 4.577 Mbytes
Step Temp E_pair E_mol TotEng Press 
       0            0   -48853.377            0   -48853.377   -288.82788 
       1            0   -48853.377            0   -48853.377   -288.82788 
Loop time of 0.106221 on 40 procs for 1 steps with 32000 atoms

21.8% CPU use with 40 MPI tasks x no OpenMP threads

Minimization stats:
  Stopping criterion = energy tolerance
  Energy initial, next-to-last, final = 
        -48853.3774602     -48853.3774602     -48853.3774602
  Force two-norm initial, final = 1.0132e-12 1.00973e-12
  Force max component initial, final = 9.99201e-15 9.99201e-15
  Final line search alpha, max atom move = 1 9.99201e-15
  Iterations, force evaluations = 1 2

MPI task timing breakdown:
Section |  min time  |  avg time  |  max time  |%varavg| %total
---------------------------------------------------------------
Pair    | 0.011738   | 0.021718   | 0.035889   |   3.7 | 20.45
Neigh   | 0          | 0          | 0          |   0.0 |  0.00
Comm    | 0.018954   | 0.036902   | 0.053923   |   4.1 | 34.74
Output  | 0          | 0          | 0          |   0.0 |  0.00
Modify  | 0          | 0          | 0          |   0.0 |  0.00
Other   |            | 0.0476     |            |       | 44.81

Nlocal:    800 ave 800 max 800 min
Histogram: 40 0 0 0 0 0 0 0 0 0
Nghost:    2642 ave 2642 max 2642 min
Histogram: 40 0 0 0 0 0 0 0 0 0
Neighs:    34400 ave 35115 max 33685 min
Histogram: 16 0 0 0 0 8 0 0 0 16

Total # of neighbors = 1376000
Ave neighs/atom = 43
Neighbor list builds = 0
Dangerous builds = 0
@@@@  (energy per atom): 4.696 -1.52666804563191 25.889536384 -0.028882788000041 -1.53133520927336
Lattice spacing in x,y,z = 4.6955 4.6955 4.6955
Created orthogonal box = (0 0 0) to (93.91 93.91 93.91)
  2 by 4 by 5 MPI processor grid
Created 32000 atoms
  create_atoms CPU = 0.0430119 secs
WARNING: Using 'neigh_modify every 1 delay 0 check yes' setting during minimization (../min.cpp:190)
Neighbor list info ...
  update every 1 steps, delay 0 steps, check yes
  max neighbors/atom: 2000, page size: 100000
  master list distance cutoff = 8.3
  ghost atom cutoff = 8.3
  binsize = 4.15, bins = 23 23 23
  1 neighbor lists, perpetual/occasional/extra = 1 0 0
  (1) pair eam/fs, perpetual
      attributes: half, newton on
      pair build: half/bin/atomonly/newton
      stencil: half/bin/3d/newton
      bin: standard
Setting up sd style minimization ...
  Unit style    : metal
  Current step  : 0
Per MPI rank memory allocation (min/avg/max) = 4.577 | 4.577 | 4.577 Mbytes
Step Temp E_pair E_mol TotEng Press 
       0            0   -48853.418            0   -48853.418   -206.68611 
       1            0   -48853.418            0   -48853.418   -206.68611 
Loop time of 0.0980854 on 40 procs for 1 steps with 32000 atoms

23.2% CPU use with 40 MPI tasks x no OpenMP threads

Minimization stats:
  Stopping criterion = energy tolerance
  Energy initial, next-to-last, final = 
        -48853.4183797     -48853.4183797     -48853.4183797
  Force two-norm initial, final = 3.04864e-12 3.0001e-12
  Force max component initial, final = 2.01193e-14 2.27353e-14
  Final line search alpha, max atom move = 1 2.27353e-14
  Iterations, force evaluations = 1 2

MPI task timing breakdown:
Section |  min time  |  avg time  |  max time  |%varavg| %total
---------------------------------------------------------------
Pair    | 0.022203   | 0.027933   | 0.033775   |   1.9 | 28.48
Neigh   | 0          | 0          | 0          |   0.0 |  0.00
Comm    | 0.0086303  | 0.018984   | 0.026189   |   2.8 | 19.35
Output  | 0          | 0          | 0          |   0.0 |  0.00
Modify  | 0          | 0          | 0          |   0.0 |  0.00
Other   |            | 0.05117    |            |       | 52.17

Nlocal:    800 ave 800 max 800 min
Histogram: 40 0 0 0 0 0 0 0 0 0
Nghost:    2642 ave 2642 max 2642 min
Histogram: 40 0 0 0 0 0 0 0 0 0
Neighs:    34400 ave 35115 max 33685 min
Histogram: 16 0 0 0 0 8 0 0 0 16

Total # of neighbors = 1376000
Ave neighs/atom = 43
Neighbor list builds = 0
Dangerous builds = 0
@@@@  (energy per atom): 4.6955 -1.5266693243663 25.8812676084687 -0.0206686111198627 -1.53000809419278
Lattice spacing in x,y,z = 4.695 4.695 4.695
Created orthogonal box = (0 0 0) to (93.9 93.9 93.9)
  4 by 2 by 5 MPI processor grid
Created 32000 atoms
  create_atoms CPU = 0.026124 secs
WARNING: Using 'neigh_modify every 1 delay 0 check yes' setting during minimization (../min.cpp:190)
Neighbor list info ...
  update every 1 steps, delay 0 steps, check yes
  max neighbors/atom: 2000, page size: 100000
  master list distance cutoff = 8.3
  ghost atom cutoff = 8.3
  binsize = 4.15, bins = 23 23 23
  1 neighbor lists, perpetual/occasional/extra = 1 0 0
  (1) pair eam/fs, perpetual
      attributes: half, newton on
      pair build: half/bin/atomonly/newton
      stencil: half/bin/3d/newton
      bin: standard
Setting up sd style minimization ...
  Unit style    : metal
  Current step  : 0
Per MPI rank memory allocation (min/avg/max) = 4.577 | 4.577 | 4.577 Mbytes
Step Temp E_pair E_mol TotEng Press 
       0            0   -48853.446            0   -48853.446   -124.40018 
       1            0   -48853.446            0   -48853.446   -124.40018 
Loop time of 0.0819138 on 40 procs for 1 steps with 32000 atoms

21.7% CPU use with 40 MPI tasks x no OpenMP threads

Minimization stats:
  Stopping criterion = energy tolerance
  Energy initial, next-to-last, final = 
        -48853.4457157     -48853.4457157     -48853.4457157
  Force two-norm initial, final = 2.54088e-12 2.54174e-12
  Force max component initial, final = 1.91739e-14 1.94497e-14
  Final line search alpha, max atom move = 1 1.94497e-14
  Iterations, force evaluations = 1 2

MPI task timing breakdown:
Section |  min time  |  avg time  |  max time  |%varavg| %total
---------------------------------------------------------------
Pair    | 0.019875   | 0.027076   | 0.035917   |   2.8 | 33.05
Neigh   | 0          | 0          | 0          |   0.0 |  0.00
Comm    | 0.012652   | 0.021861   | 0.02937    |   3.2 | 26.69
Output  | 0          | 0          | 0          |   0.0 |  0.00
Modify  | 0          | 0          | 0          |   0.0 |  0.00
Other   |            | 0.03298    |            |       | 40.26

Nlocal:    800 ave 800 max 800 min
Histogram: 40 0 0 0 0 0 0 0 0 0
Nghost:    2642 ave 2642 max 2642 min
Histogram: 40 0 0 0 0 0 0 0 0 0
Neighs:    34400 ave 35115 max 33685 min
Histogram: 16 0 0 0 0 8 0 0 0 16

Total # of neighbors = 1376000
Ave neighs/atom = 43
Neighbor list builds = 0
Dangerous builds = 0
@@@@  (energy per atom): 4.695 -1.52667017861655 25.87300059375 -0.0124400184582066 -1.52867907467111
Lattice spacing in x,y,z = 4.6945 4.6945 4.6945
Created orthogonal box = (0 0 0) to (93.89 93.89 93.89)
  2 by 4 by 5 MPI processor grid
Created 32000 atoms
  create_atoms CPU = 0.00715017 secs
WARNING: Using 'neigh_modify every 1 delay 0 check yes' setting during minimization (../min.cpp:190)
Neighbor list info ...
  update every 1 steps, delay 0 steps, check yes
  max neighbors/atom: 2000, page size: 100000
  master list distance cutoff = 8.3
  ghost atom cutoff = 8.3
  binsize = 4.15, bins = 23 23 23
  1 neighbor lists, perpetual/occasional/extra = 1 0 0
  (1) pair eam/fs, perpetual
      attributes: half, newton on
      pair build: half/bin/atomonly/newton
      stencil: half/bin/3d/newton
      bin: standard
Setting up sd style minimization ...
  Unit style    : metal
  Current step  : 0
Per MPI rank memory allocation (min/avg/max) = 4.577 | 4.577 | 4.577 Mbytes
Step Temp E_pair E_mol TotEng Press 
       0            0   -48853.459            0   -48853.459   -41.969997 
       1            0   -48853.459            0   -48853.459   -41.969997 
Loop time of 0.102825 on 40 procs for 1 steps with 32000 atoms

22.5% CPU use with 40 MPI tasks x no OpenMP threads

Minimization stats:
  Stopping criterion = energy tolerance
  Energy initial, next-to-last, final = 
        -48853.4594502     -48853.4594502     -48853.4594502
  Force two-norm initial, final = 2.68499e-12 2.61133e-12
  Force max component initial, final = 1.98452e-14 2.09945e-14
  Final line search alpha, max atom move = 1 2.09945e-14
  Iterations, force evaluations = 1 2

MPI task timing breakdown:
Section |  min time  |  avg time  |  max time  |%varavg| %total
---------------------------------------------------------------
Pair    | 0.01851    | 0.025423   | 0.039663   |   2.4 | 24.72
Neigh   | 0          | 0          | 0          |   0.0 |  0.00
Comm    | 0.0075307  | 0.016957   | 0.030178   |   4.3 | 16.49
Output  | 0          | 0          | 0          |   0.0 |  0.00
Modify  | 0          | 0          | 0          |   0.0 |  0.00
Other   |            | 0.06044    |            |       | 58.78

Nlocal:    800 ave 800 max 800 min
Histogram: 40 0 0 0 0 0 0 0 0 0
Nghost:    2642 ave 2642 max 2642 min
Histogram: 40 0 0 0 0 0 0 0 0 0
Neighs:    34400 ave 35115 max 33685 min
Histogram: 16 0 0 0 0 8 0 0 0 16

Total # of neighbors = 1376000
Ave neighs/atom = 43
Neighbor list builds = 0
Dangerous builds = 0
@@@@  (energy per atom): 4.6945 -1.52667060781815 25.8647353396562 -0.00419699966426249 -1.52734815043307
Lattice spacing in x,y,z = 4.694 4.694 4.694
Created orthogonal box = (0 0 0) to (93.88 93.88 93.88)
  2 by 4 by 5 MPI processor grid
Created 32000 atoms
  create_atoms CPU = 0.0386961 secs
WARNING: Using 'neigh_modify every 1 delay 0 check yes' setting during minimization (../min.cpp:190)
Neighbor list info ...
  update every 1 steps, delay 0 steps, check yes
  max neighbors/atom: 2000, page size: 100000
  master list distance cutoff = 8.3
  ghost atom cutoff = 8.3
  binsize = 4.15, bins = 23 23 23
  1 neighbor lists, perpetual/occasional/extra = 1 0 0
  (1) pair eam/fs, perpetual
      attributes: half, newton on
      pair build: half/bin/atomonly/newton
      stencil: half/bin/3d/newton
      bin: standard
Setting up sd style minimization ...
  Unit style    : metal
  Current step  : 0
Per MPI rank memory allocation (min/avg/max) = 4.577 | 4.577 | 4.577 Mbytes
Step Temp E_pair E_mol TotEng Press 
       0            0    -48853.46            0    -48853.46    40.604578 
       1            0    -48853.46            0    -48853.46    40.604578 
Loop time of 0.0852071 on 40 procs for 1 steps with 32000 atoms

22.1% CPU use with 40 MPI tasks x no OpenMP threads

Minimization stats:
  Stopping criterion = energy tolerance
  Energy initial, next-to-last, final = 
        -48853.4595651     -48853.4595651     -48853.4595651
  Force two-norm initial, final = 3.30982e-12 3.2634e-12
  Force max component initial, final = 2.0638e-14 2.16736e-14
  Final line search alpha, max atom move = 1 2.16736e-14
  Iterations, force evaluations = 1 2

MPI task timing breakdown:
Section |  min time  |  avg time  |  max time  |%varavg| %total
---------------------------------------------------------------
Pair    | 0.012271   | 0.019871   | 0.032384   |   3.3 | 23.32
Neigh   | 0          | 0          | 0          |   0.0 |  0.00
Comm    | 0.014223   | 0.025247   | 0.032735   |   2.5 | 29.63
Output  | 0          | 0          | 0          |   0.0 |  0.00
Modify  | 0          | 0          | 0          |   0.0 |  0.00
Other   |            | 0.04009    |            |       | 47.05

Nlocal:    800 ave 800 max 800 min
Histogram: 40 0 0 0 0 0 0 0 0 0
Nghost:    2642 ave 2642 max 2642 min
Histogram: 40 0 0 0 0 0 0 0 0 0
Neighs:    34400 ave 35115 max 33685 min
Histogram: 16 0 0 0 0 8 0 0 0 16

Total # of neighbors = 1376000
Ave neighs/atom = 43
Neighbor list builds = 0
Dangerous builds = 0
@@@@  (energy per atom): 4.694 -1.52667061140869 25.856471846 0.00406045782691713 -1.52601532084936
Lattice spacing in x,y,z = 4.6935 4.6935 4.6935
Created orthogonal box = (0 0 0) to (93.87 93.87 93.87)
  2 by 4 by 5 MPI processor grid
Created 32000 atoms
  create_atoms CPU = 0.024497 secs
WARNING: Using 'neigh_modify every 1 delay 0 check yes' setting during minimization (../min.cpp:190)
Neighbor list info ...
  update every 1 steps, delay 0 steps, check yes
  max neighbors/atom: 2000, page size: 100000
  master list distance cutoff = 8.3
  ghost atom cutoff = 8.3
  binsize = 4.15, bins = 23 23 23
  1 neighbor lists, perpetual/occasional/extra = 1 0 0
  (1) pair eam/fs, perpetual
      attributes: half, newton on
      pair build: half/bin/atomonly/newton
      stencil: half/bin/3d/newton
      bin: standard
Setting up sd style minimization ...
  Unit style    : metal
  Current step  : 0
Per MPI rank memory allocation (min/avg/max) = 4.577 | 4.577 | 4.577 Mbytes
Step Temp E_pair E_mol TotEng Press 
       0            0   -48853.446            0   -48853.446    123.32365 
       1            0   -48853.446            0   -48853.446    123.32365 
Loop time of 0.109794 on 40 procs for 1 steps with 32000 atoms

23.0% CPU use with 40 MPI tasks x no OpenMP threads

Minimization stats:
  Stopping criterion = quadratic factors are zero
  Energy initial, next-to-last, final = 
        -48853.4460424     -48853.4460424     -48853.4460424
  Force two-norm initial, final = 5.48534e-15 5.48534e-15
  Force max component initial, final = 7.45931e-17 7.45931e-17
  Final line search alpha, max atom move = 1 7.45931e-17
  Iterations, force evaluations = 1 2

MPI task timing breakdown:
Section |  min time  |  avg time  |  max time  |%varavg| %total
---------------------------------------------------------------
Pair    | 0.019206   | 0.02651    | 0.035529   |   2.8 | 24.15
Neigh   | 0          | 0          | 0          |   0.0 |  0.00
Comm    | 0.019009   | 0.030443   | 0.040007   |   2.8 | 27.73
Output  | 0          | 0          | 0          |   0.0 |  0.00
Modify  | 0          | 0          | 0          |   0.0 |  0.00
Other   |            | 0.05284    |            |       | 48.13

Nlocal:    800 ave 800 max 800 min
Histogram: 40 0 0 0 0 0 0 0 0 0
Nghost:    2642 ave 2642 max 2642 min
Histogram: 40 0 0 0 0 0 0 0 0 0
Neighs:    34400 ave 35115 max 33685 min
Histogram: 16 0 0 0 0 8 0 0 0 16

Total # of neighbors = 1376000
Ave neighs/atom = 43
Neighbor list builds = 0
Dangerous builds = 0
@@@@  (energy per atom): 4.6935 -1.52667018882498 25.8482101125938 0.0123323651204009 -1.52468058552711
Lattice spacing in x,y,z = 4.693 4.693 4.693
Created orthogonal box = (0 0 0) to (93.86 93.86 93.86)
  2 by 4 by 5 MPI processor grid
Created 32000 atoms
  create_atoms CPU = 0.0076189 secs
WARNING: Using 'neigh_modify every 1 delay 0 check yes' setting during minimization (../min.cpp:190)
Neighbor list info ...
  update every 1 steps, delay 0 steps, check yes
  max neighbors/atom: 2000, page size: 100000
  master list distance cutoff = 8.3
  ghost atom cutoff = 8.3
  binsize = 4.15, bins = 23 23 23
  1 neighbor lists, perpetual/occasional/extra = 1 0 0
  (1) pair eam/fs, perpetual
      attributes: half, newton on
      pair build: half/bin/atomonly/newton
      stencil: half/bin/3d/newton
      bin: standard
Setting up sd style minimization ...
  Unit style    : metal
  Current step  : 0
Per MPI rank memory allocation (min/avg/max) = 4.577 | 4.577 | 4.577 Mbytes
Step Temp E_pair E_mol TotEng Press 
       0            0   -48853.419            0   -48853.419    206.18733 
       1            0   -48853.419            0   -48853.419    206.18733 
Loop time of 0.105676 on 40 procs for 1 steps with 32000 atoms

23.3% CPU use with 40 MPI tasks x no OpenMP threads

Minimization stats:
  Stopping criterion = energy tolerance
  Energy initial, next-to-last, final = 
        -48853.4188641     -48853.4188641     -48853.4188641
  Force two-norm initial, final = 3.36805e-12 3.33482e-12
  Force max component initial, final = 2.07299e-14 2.35957e-14
  Final line search alpha, max atom move = 1 2.35957e-14
  Iterations, force evaluations = 1 2

MPI task timing breakdown:
Section |  min time  |  avg time  |  max time  |%varavg| %total
---------------------------------------------------------------
Pair    | 0.02451    | 0.035563   | 0.045599   |   3.0 | 33.65
Neigh   | 0          | 0          | 0          |   0.0 |  0.00
Comm    | 0.013309   | 0.024034   | 0.035796   |   3.6 | 22.74
Output  | 0          | 0          | 0          |   0.0 |  0.00
Modify  | 0          | 0          | 0          |   0.0 |  0.00
Other   |            | 0.04608    |            |       | 43.60

Nlocal:    800 ave 800 max 800 min
Histogram: 40 0 0 0 0 0 0 0 0 0
Nghost:    2642 ave 2642 max 2642 min
Histogram: 40 0 0 0 0 0 0 0 0 0
Neighs:    34400 ave 35115 max 33685 min
Histogram: 16 0 0 0 0 8 0 0 0 16

Total # of neighbors = 1376000
Ave neighs/atom = 43
Neighbor list builds = 0
Dangerous builds = 0
@@@@  (energy per atom): 4.693 -1.52666933950263 25.83995013925 0.0206187333026588 -1.52334394407662
Lattice spacing in x,y,z = 4.6925 4.6925 4.6925
Created orthogonal box = (0 0 0) to (93.85 93.85 93.85)
  2 by 4 by 5 MPI processor grid
Created 32000 atoms
  create_atoms CPU = 0.0179999 secs
WARNING: Using 'neigh_modify every 1 delay 0 check yes' setting during minimization (../min.cpp:190)
Neighbor list info ...
  update every 1 steps, delay 0 steps, check yes
  max neighbors/atom: 2000, page size: 100000
  master list distance cutoff = 8.3
  ghost atom cutoff = 8.3
  binsize = 4.15, bins = 23 23 23
  1 neighbor lists, perpetual/occasional/extra = 1 0 0
  (1) pair eam/fs, perpetual
      attributes: half, newton on
      pair build: half/bin/atomonly/newton
      stencil: half/bin/3d/newton
      bin: standard
Setting up sd style minimization ...
  Unit style    : metal
  Current step  : 0
Per MPI rank memory allocation (min/avg/max) = 4.577 | 4.577 | 4.577 Mbytes
Step Temp E_pair E_mol TotEng Press 
       0            0   -48853.378            0   -48853.378    289.19575 
      10            0   -48853.378            0   -48853.378    289.19575 
Loop time of 0.652225 on 40 procs for 10 steps with 32000 atoms

22.7% CPU use with 40 MPI tasks x no OpenMP threads

Minimization stats:
  Stopping criterion = energy tolerance
  Energy initial, next-to-last, final = 
        -48853.3780121     -48853.3780121     -48853.3780121
  Force two-norm initial, final = 2.38738e-12 2.34693e-12
  Force max component initial, final = 2.02772e-14 2.617e-14
  Final line search alpha, max atom move = 1 2.617e-14
  Iterations, force evaluations = 10 20

MPI task timing breakdown:
Section |  min time  |  avg time  |  max time  |%varavg| %total
---------------------------------------------------------------
Pair    | 0.13356    | 0.16614    | 0.22279    |   4.0 | 25.47
Neigh   | 0          | 0          | 0          |   0.0 |  0.00
Comm    | 0.14441    | 0.18556    | 0.22159    |   3.8 | 28.45
Output  | 0          | 0          | 0          |   0.0 |  0.00
Modify  | 0          | 0          | 0          |   0.0 |  0.00
Other   |            | 0.3005     |            |       | 46.08

Nlocal:    800 ave 800 max 800 min
Histogram: 40 0 0 0 0 0 0 0 0 0
Nghost:    2642 ave 2642 max 2642 min
Histogram: 40 0 0 0 0 0 0 0 0 0
Neighs:    34400 ave 35115 max 33685 min
Histogram: 16 0 0 0 0 8 0 0 0 16

Total # of neighbors = 1376000
Ave neighs/atom = 43
Neighbor list builds = 0
Dangerous builds = 0
@@@@  (energy per atom): 4.6925 -1.52666806287811 25.8316919257812 0.028919574887277 -1.52200539588035
Lattice spacing in x,y,z = 4.692 4.692 4.692
Created orthogonal box = (0 0 0) to (93.84 93.84 93.84)
  4 by 2 by 5 MPI processor grid
Created 32000 atoms
  create_atoms CPU = 0.015358 secs
WARNING: Using 'neigh_modify every 1 delay 0 check yes' setting during minimization (../min.cpp:190)
Neighbor list info ...
  update every 1 steps, delay 0 steps, check yes
  max neighbors/atom: 2000, page size: 100000
  master list distance cutoff = 8.3
  ghost atom cutoff = 8.3
  binsize = 4.15, bins = 23 23 23
  1 neighbor lists, perpetual/occasional/extra = 1 0 0
  (1) pair eam/fs, perpetual
      attributes: half, newton on
      pair build: half/bin/atomonly/newton
      stencil: half/bin/3d/newton
      bin: standard
Setting up sd style minimization ...
  Unit style    : metal
  Current step  : 0
Per MPI rank memory allocation (min/avg/max) = 4.577 | 4.577 | 4.577 Mbytes
Step Temp E_pair E_mol TotEng Press 
       0            0   -48853.323            0   -48853.323      372.349 
       1            0   -48853.323            0   -48853.323      372.349 
Loop time of 0.130538 on 40 procs for 1 steps with 32000 atoms

22.8% CPU use with 40 MPI tasks x no OpenMP threads

Minimization stats:
  Stopping criterion = energy tolerance
  Energy initial, next-to-last, final = 
        -48853.3234684     -48853.3234684     -48853.3234684
  Force two-norm initial, final = 2.64007e-12 2.63547e-12
  Force max component initial, final = 2.01072e-14 2.27275e-14
  Final line search alpha, max atom move = 1 2.27275e-14
  Iterations, force evaluations = 1 2

MPI task timing breakdown:
Section |  min time  |  avg time  |  max time  |%varavg| %total
---------------------------------------------------------------
Pair    | 0.016566   | 0.027256   | 0.039074   |   3.3 | 20.88
Neigh   | 0          | 0          | 0          |   0.0 |  0.00
Comm    | 0.010581   | 0.024957   | 0.036823   |   4.3 | 19.12
Output  | 0          | 0          | 0          |   0.0 |  0.00
Modify  | 0          | 0          | 0          |   0.0 |  0.00
Other   |            | 0.07832    |            |       | 60.00

Nlocal:    800 ave 800 max 800 min
Histogram: 40 0 0 0 0 0 0 0 0 0
Nghost:    2642 ave 2642 max 2642 min
Histogram: 40 0 0 0 0 0 0 0 0 0
Neighs:    34400 ave 35115 max 33685 min
Histogram: 16 0 0 0 0 8 0 0 0 16

Total # of neighbors = 1376000
Ave neighs/atom = 43
Neighbor list builds = 0
Dangerous builds = 0
@@@@  (energy per atom): 4.692 -1.52666635838783 25.823435472 0.037234900211732 -1.52066494067309
Lattice spacing in x,y,z = 4.6915 4.6915 4.6915
Created orthogonal box = (0 0 0) to (93.83 93.83 93.83)
  2 by 4 by 5 MPI processor grid
Created 32000 atoms
  create_atoms CPU = 0.041836 secs
WARNING: Using 'neigh_modify every 1 delay 0 check yes' setting during minimization (../min.cpp:190)
Neighbor list info ...
  update every 1 steps, delay 0 steps, check yes
  max neighbors/atom: 2000, page size: 100000
  master list distance cutoff = 8.3
  ghost atom cutoff = 8.3
  binsize = 4.15, bins = 23 23 23
  1 neighbor lists, perpetual/occasional/extra = 1 0 0
  (1) pair eam/fs, perpetual
      attributes: half, newton on
      pair build: half/bin/atomonly/newton
      stencil: half/bin/3d/newton
      bin: standard
Setting up sd style minimization ...
  Unit style    : metal
  Current step  : 0
Per MPI rank memory allocation (min/avg/max) = 4.577 | 4.577 | 4.577 Mbytes
Step Temp E_pair E_mol TotEng Press 
       0            0   -48853.255            0   -48853.255    455.64722 
      10            0   -48853.255            0   -48853.255    455.64722 
Loop time of 0.614005 on 40 procs for 10 steps with 32000 atoms

22.5% CPU use with 40 MPI tasks x no OpenMP threads

Minimization stats:
  Stopping criterion = energy tolerance
  Energy initial, next-to-last, final = 
        -48853.2552149     -48853.2552149     -48853.2552149
  Force two-norm initial, final = 2.84074e-12 2.81833e-12
  Force max component initial, final = 2.0102e-14 3.03776e-14
  Final line search alpha, max atom move = 1 3.03776e-14
  Iterations, force evaluations = 10 20

MPI task timing breakdown:
Section |  min time  |  avg time  |  max time  |%varavg| %total
---------------------------------------------------------------
Pair    | 0.1599     | 0.18767    | 0.22067    |   3.1 | 30.56
Neigh   | 0          | 0          | 0          |   0.0 |  0.00
Comm    | 0.12944    | 0.15747    | 0.19419    |   3.5 | 25.65
Output  | 0          | 0          | 0          |   0.0 |  0.00
Modify  | 0          | 0          | 0          |   0.0 |  0.00
Other   |            | 0.2689     |            |       | 43.79

Nlocal:    800 ave 800 max 800 min
Histogram: 40 0 0 0 0 0 0 0 0 0
Nghost:    2642 ave 2642 max 2642 min
Histogram: 40 0 0 0 0 0 0 0 0 0
Neighs:    34400 ave 35115 max 33685 min
Histogram: 16 0 0 0 0 8 0 0 0 16

Total # of neighbors = 1376000
Ave neighs/atom = 43
Neighbor list builds = 0
Dangerous builds = 0
@@@@  (energy per atom): 4.6915 -1.52666422546625 25.8151807777187 0.0455647222873791 -1.51932257775805
Lattice spacing in x,y,z = 4.691 4.691 4.691
Created orthogonal box = (0 0 0) to (93.82 93.82 93.82)
  2 by 4 by 5 MPI processor grid
Created 32000 atoms
  create_atoms CPU = 0.0218101 secs
WARNING: Using 'neigh_modify every 1 delay 0 check yes' setting during minimization (../min.cpp:190)
Neighbor list info ...
  update every 1 steps, delay 0 steps, check yes
  max neighbors/atom: 2000, page size: 100000
  master list distance cutoff = 8.3
  ghost atom cutoff = 8.3
  binsize = 4.15, bins = 23 23 23
  1 neighbor lists, perpetual/occasional/extra = 1 0 0
  (1) pair eam/fs, perpetual
      attributes: half, newton on
      pair build: half/bin/atomonly/newton
      stencil: half/bin/3d/newton
      bin: standard
Setting up sd style minimization ...
  Unit style    : metal
  Current step  : 0
Per MPI rank memory allocation (min/avg/max) = 4.577 | 4.577 | 4.577 Mbytes
Step Temp E_pair E_mol TotEng Press 
       0            0   -48853.173            0   -48853.173    539.09051 
       1            0   -48853.173            0   -48853.173    539.09051 
Loop time of 0.0942256 on 40 procs for 1 steps with 32000 atoms

22.6% CPU use with 40 MPI tasks x no OpenMP threads

Minimization stats:
  Stopping criterion = energy tolerance
  Energy initial, next-to-last, final = 
        -48853.1732336     -48853.1732336     -48853.1732336
  Force two-norm initial, final = 1.83469e-12 1.81233e-12
  Force max component initial, final = 2.01948e-14 2.02642e-14
  Final line search alpha, max atom move = 1 2.02642e-14
  Iterations, force evaluations = 1 2

MPI task timing breakdown:
Section |  min time  |  avg time  |  max time  |%varavg| %total
---------------------------------------------------------------
Pair    | 0.010961   | 0.024064   | 0.035793   |   4.0 | 25.54
Neigh   | 0          | 0          | 0          |   0.0 |  0.00
Comm    | 0.015211   | 0.027612   | 0.041387   |   3.8 | 29.30
Output  | 0          | 0          | 0          |   0.0 |  0.00
Modify  | 0          | 0          | 0          |   0.0 |  0.00
Other   |            | 0.04255    |            |       | 45.16

Nlocal:    800 ave 800 max 800 min
Histogram: 40 0 0 0 0 0 0 0 0 0
Nghost:    2642 ave 2642 max 2642 min
Histogram: 40 0 0 0 0 0 0 0 0 0
Neighs:    34400 ave 35379 max 33430 min
Histogram: 4 8 4 2 2 2 2 4 8 4

Total # of neighbors = 1376000
Ave neighs/atom = 43
Neighbor list builds = 0
Dangerous builds = 0
@@@@  (energy per atom): 4.691 -1.52666166355114 25.80692784275 0.0539090510917467 -1.51797830693222
Lattice spacing in x,y,z = 4.6905 4.6905 4.6905
Created orthogonal box = (0 0 0) to (93.81 93.81 93.81)
  2 by 4 by 5 MPI processor grid
Created 32000 atoms
  create_atoms CPU = 0.0169899 secs
WARNING: Using 'neigh_modify every 1 delay 0 check yes' setting during minimization (../min.cpp:190)
Neighbor list info ...
  update every 1 steps, delay 0 steps, check yes
  max neighbors/atom: 2000, page size: 100000
  master list distance cutoff = 8.3
  ghost atom cutoff = 8.3
  binsize = 4.15, bins = 23 23 23
  1 neighbor lists, perpetual/occasional/extra = 1 0 0
  (1) pair eam/fs, perpetual
      attributes: half, newton on
      pair build: half/bin/atomonly/newton
      stencil: half/bin/3d/newton
      bin: standard
Setting up sd style minimization ...
  Unit style    : metal
  Current step  : 0
Per MPI rank memory allocation (min/avg/max) = 4.577 | 4.577 | 4.577 Mbytes
Step Temp E_pair E_mol TotEng Press 
       0            0   -48853.078            0   -48853.078      622.679 
       1            0   -48853.078            0   -48853.078      622.679 
Loop time of 0.0764522 on 40 procs for 1 steps with 32000 atoms

22.8% CPU use with 40 MPI tasks x no OpenMP threads

Minimization stats:
  Stopping criterion = energy tolerance
  Energy initial, next-to-last, final = 
        -48853.0775065     -48853.0775065     -48853.0775065
  Force two-norm initial, final = 2.2832e-12 2.42433e-12
  Force max component initial, final = 1.9703e-14 3.21332e-14
  Final line search alpha, max atom move = 1 3.21332e-14
  Iterations, force evaluations = 1 2

MPI task timing breakdown:
Section |  min time  |  avg time  |  max time  |%varavg| %total
---------------------------------------------------------------
Pair    | 0.020235   | 0.035546   | 0.049293   |   3.6 | 46.49
Neigh   | 0          | 0          | 0          |   0.0 |  0.00
Comm    | 0.010511   | 0.023304   | 0.034339   |   3.7 | 30.48
Output  | 0          | 0          | 0          |   0.0 |  0.00
Modify  | 0          | 0          | 0          |   0.0 |  0.00
Other   |            | 0.0176     |            |       | 23.02

Nlocal:    800 ave 800 max 800 min
Histogram: 40 0 0 0 0 0 0 0 0 0
Nghost:    2642 ave 2642 max 2642 min
Histogram: 40 0 0 0 0 0 0 0 0 0
Neighs:    34400 ave 35115 max 33685 min
Histogram: 16 0 0 0 0 8 0 0 0 16

Total # of neighbors = 1376000
Ave neighs/atom = 43
Neighbor list builds = 0
Dangerous builds = 0
@@@@  (energy per atom): 4.6905 -1.5266586720771 25.7986766669062 0.062267899783339 -1.51663212747831
Lattice spacing in x,y,z = 4.69 4.69 4.69
Created orthogonal box = (0 0 0) to (93.8 93.8 93.8)
  2 by 4 by 5 MPI processor grid
Created 32000 atoms
  create_atoms CPU = 0.025528 secs
WARNING: Using 'neigh_modify every 1 delay 0 check yes' setting during minimization (../min.cpp:190)
Neighbor list info ...
  update every 1 steps, delay 0 steps, check yes
  max neighbors/atom: 2000, page size: 100000
  master list distance cutoff = 8.3
  ghost atom cutoff = 8.3
  binsize = 4.15, bins = 23 23 23
  1 neighbor lists, perpetual/occasional/extra = 1 0 0
  (1) pair eam/fs, perpetual
      attributes: half, newton on
      pair build: half/bin/atomonly/newton
      stencil: half/bin/3d/newton
      bin: standard
Setting up sd style minimization ...
  Unit style    : metal
  Current step  : 0
Per MPI rank memory allocation (min/avg/max) = 4.548 | 4.568 | 4.577 Mbytes
Step Temp E_pair E_mol TotEng Press 
       0            0   -48852.968            0   -48852.968    706.41279 
       1            0   -48852.968            0   -48852.968    706.41279 
Loop time of 0.0920194 on 40 procs for 1 steps with 32000 atoms

22.1% CPU use with 40 MPI tasks x no OpenMP threads

Minimization stats:
  Stopping criterion = energy tolerance
  Energy initial, next-to-last, final = 
        -48852.9680153     -48852.9680153     -48852.9680153
  Force two-norm initial, final = 1.98285e-12 1.95264e-12
  Force max component initial, final = 2.01922e-14 2.09572e-14
  Final line search alpha, max atom move = 1 2.09572e-14
  Iterations, force evaluations = 1 2

MPI task timing breakdown:
Section |  min time  |  avg time  |  max time  |%varavg| %total
---------------------------------------------------------------
Pair    | 0.020916   | 0.026052   | 0.031594   |   1.8 | 28.31
Neigh   | 0          | 0          | 0          |   0.0 |  0.00
Comm    | 0.017495   | 0.025219   | 0.043364   |   3.6 | 27.41
Output  | 0          | 0          | 0          |   0.0 |  0.00
Modify  | 0          | 0          | 0          |   0.0 |  0.00
Other   |            | 0.04075    |            |       | 44.28

Nlocal:    800 ave 900 max 700 min
Histogram: 8 0 0 0 0 24 0 0 0 8
Nghost:    2642 ave 2742 max 2542 min
Histogram: 8 0 0 0 0 24 0 0 0 8
Neighs:    34400 ave 39004 max 29870 min
Histogram: 8 0 0 2 11 10 1 0 0 8

Total # of neighbors = 1376000
Ave neighs/atom = 43
Neighbor list builds = 0
Dangerous builds = 0
@@@@  (energy per atom): 4.69 -1.52665525047815 25.79042725 0.0706412788629505 -1.51528403910811
Lattice spacing in x,y,z = 4.6895 4.6895 4.6895
Created orthogonal box = (0 0 0) to (93.79 93.79 93.79)
  2 by 4 by 5 MPI processor grid
Created 32000 atoms
  create_atoms CPU = 0.0448709 secs
WARNING: Using 'neigh_modify every 1 delay 0 check yes' setting during minimization (../min.cpp:190)
Neighbor list info ...
  update every 1 steps, delay 0 steps, check yes
  max neighbors/atom: 2000, page size: 100000
  master list distance cutoff = 8.3
  ghost atom cutoff = 8.3
  binsize = 4.15, bins = 23 23 23
  1 neighbor lists, perpetual/occasional/extra = 1 0 0
  (1) pair eam/fs, perpetual
      attributes: half, newton on
      pair build: half/bin/atomonly/newton
      stencil: half/bin/3d/newton
      bin: standard
Setting up sd style minimization ...
  Unit style    : metal
  Current step  : 0
Per MPI rank memory allocation (min/avg/max) = 4.577 | 4.577 | 4.577 Mbytes
Step Temp E_pair E_mol TotEng Press 
       0            0   -48852.845            0   -48852.845      790.292 
       1            0   -48852.845            0   -48852.845      790.292 
Loop time of 0.0796108 on 40 procs for 1 steps with 32000 atoms

22.6% CPU use with 40 MPI tasks x no OpenMP threads

Minimization stats:
  Stopping criterion = energy tolerance
  Energy initial, next-to-last, final = 
        -48852.8447422     -48852.8447422     -48852.8447422
  Force two-norm initial, final = 2.94857e-12 2.88343e-12
  Force max component initial, final = 2.02009e-14 2.22565e-14
  Final line search alpha, max atom move = 1 2.22565e-14
  Iterations, force evaluations = 1 2

MPI task timing breakdown:
Section |  min time  |  avg time  |  max time  |%varavg| %total
---------------------------------------------------------------
Pair    | 0.017655   | 0.022067   | 0.031425   |   1.7 | 27.72
Neigh   | 0          | 0          | 0          |   0.0 |  0.00
Comm    | 0.0089748  | 0.020325   | 0.03374    |   4.2 | 25.53
Output  | 0          | 0          | 0          |   0.0 |  0.00
Modify  | 0          | 0          | 0          |   0.0 |  0.00
Other   |            | 0.03722    |            |       | 46.75

Nlocal:    800 ave 800 max 800 min
Histogram: 40 0 0 0 0 0 0 0 0 0
Nghost:    2642 ave 2642 max 2642 min
Histogram: 40 0 0 0 0 0 0 0 0 0
Neighs:    34400 ave 35115 max 33685 min
Histogram: 16 0 0 0 0 8 0 0 0 16

Total # of neighbors = 1376000
Ave neighs/atom = 43
Neighbor list builds = 0
Dangerous builds = 0
@@@@  (energy per atom): 4.6895 -1.52665139819239 25.7821795918437 0.0790292003057452 -1.51393404130142
Lattice spacing in x,y,z = 4.689 4.689 4.689
Created orthogonal box = (0 0 0) to (93.78 93.78 93.78)
  4 by 2 by 5 MPI processor grid
Created 32000 atoms
  create_atoms CPU = 0.0278339 secs
WARNING: Using 'neigh_modify every 1 delay 0 check yes' setting during minimization (../min.cpp:190)
Neighbor list info ...
  update every 1 steps, delay 0 steps, check yes
  max neighbors/atom: 2000, page size: 100000
  master list distance cutoff = 8.3
  ghost atom cutoff = 8.3
  binsize = 4.15, bins = 23 23 23
  1 neighbor lists, perpetual/occasional/extra = 1 0 0
  (1) pair eam/fs, perpetual
      attributes: half, newton on
      pair build: half/bin/atomonly/newton
      stencil: half/bin/3d/newton
      bin: standard
Setting up sd style minimization ...
  Unit style    : metal
  Current step  : 0
Per MPI rank memory allocation (min/avg/max) = 4.577 | 4.577 | 4.577 Mbytes
Step Temp E_pair E_mol TotEng Press 
       0            0   -48852.708            0   -48852.708    874.31676 
       1            0   -48852.708            0   -48852.708    874.31676 
Loop time of 0.113265 on 40 procs for 1 steps with 32000 atoms

22.4% CPU use with 40 MPI tasks x no OpenMP threads

Minimization stats:
  Stopping criterion = energy tolerance
  Energy initial, next-to-last, final = 
        -48852.7076689     -48852.7076689     -48852.7076689
  Force two-norm initial, final = 2.62196e-12 2.61777e-12
  Force max component initial, final = 2.02997e-14 2.03657e-14
  Final line search alpha, max atom move = 1 2.03657e-14
  Iterations, force evaluations = 1 2

MPI task timing breakdown:
Section |  min time  |  avg time  |  max time  |%varavg| %total
---------------------------------------------------------------
Pair    | 0.016862   | 0.030154   | 0.0424     |   3.9 | 26.62
Neigh   | 0          | 0          | 0          |   0.0 |  0.00
Comm    | 0.022785   | 0.040373   | 0.057392   |   4.6 | 35.64
Output  | 0          | 0          | 0          |   0.0 |  0.00
Modify  | 0          | 0          | 0          |   0.0 |  0.00
Other   |            | 0.04274    |            |       | 37.73

Nlocal:    800 ave 800 max 800 min
Histogram: 40 0 0 0 0 0 0 0 0 0
Nghost:    2642 ave 2642 max 2642 min
Histogram: 40 0 0 0 0 0 0 0 0 0
Neighs:    34400 ave 35115 max 33685 min
Histogram: 16 0 0 0 0 8 0 0 0 16

Total # of neighbors = 1376000
Ave neighs/atom = 43
Neighbor list builds = 0
Dangerous builds = 0
@@@@  (energy per atom): 4.689 -1.52664711465266 25.77393369225 0.0874316759516545 -1.51258213355613
Lattice spacing in x,y,z = 4.6885 4.6885 4.6885
Created orthogonal box = (0 0 0) to (93.77 93.77 93.77)
  2 by 4 by 5 MPI processor grid
Created 32000 atoms
  create_atoms CPU = 0.0190539 secs
WARNING: Using 'neigh_modify every 1 delay 0 check yes' setting during minimization (../min.cpp:190)
Neighbor list info ...
  update every 1 steps, delay 0 steps, check yes
  max neighbors/atom: 2000, page size: 100000
  master list distance cutoff = 8.3
  ghost atom cutoff = 8.3
  binsize = 4.15, bins = 23 23 23
  1 neighbor lists, perpetual/occasional/extra = 1 0 0
  (1) pair eam/fs, perpetual
      attributes: half, newton on
      pair build: half/bin/atomonly/newton
      stencil: half/bin/3d/newton
      bin: standard
Setting up sd style minimization ...
  Unit style    : metal
  Current step  : 0
Per MPI rank memory allocation (min/avg/max) = 4.548 | 4.568 | 4.577 Mbytes
Step Temp E_pair E_mol TotEng Press 
       0            0   -48852.557            0   -48852.557    958.48717 
       1            0   -48852.557            0   -48852.557    958.48717 
Loop time of 0.0979425 on 40 procs for 1 steps with 32000 atoms

21.3% CPU use with 40 MPI tasks x no OpenMP threads

Minimization stats:
  Stopping criterion = energy tolerance
  Energy initial, next-to-last, final = 
        -48852.5567774     -48852.5567774     -48852.5567774
  Force two-norm initial, final = 2.48294e-12 2.44714e-12
  Force max component initial, final = 2.02338e-14 2.02338e-14
  Final line search alpha, max atom move = 1 2.02338e-14
  Iterations, force evaluations = 1 2

MPI task timing breakdown:
Section |  min time  |  avg time  |  max time  |%varavg| %total
---------------------------------------------------------------
Pair    | 0.009865   | 0.018788   | 0.028624   |   4.1 | 19.18
Neigh   | 0          | 0          | 0          |   0.0 |  0.00
Comm    | 0.013324   | 0.023082   | 0.03117    |   3.0 | 23.57
Output  | 0          | 0          | 0          |   0.0 |  0.00
Modify  | 0          | 0          | 0          |   0.0 |  0.00
Other   |            | 0.05607    |            |       | 57.25

Nlocal:    800 ave 990 max 630 min
Histogram: 2 4 6 2 12 2 6 4 0 2
Nghost:    2642 ave 2812 max 2452 min
Histogram: 2 0 4 6 0 14 2 6 4 2
Neighs:    34400 ave 42569 max 27089 min
Histogram: 2 4 6 2 8 6 4 6 0 2

Total # of neighbors = 1376000
Ave neighs/atom = 43
Neighbor list builds = 0
Dangerous builds = 0
@@@@  (energy per atom): 4.6885 -1.52664239929513 25.7656895510313 0.095848716809761 -1.51122831550857
Lattice spacing in x,y,z = 4.688 4.688 4.688
Created orthogonal box = (0 0 0) to (93.76 93.76 93.76)
  2 by 4 by 5 MPI processor grid
Created 32000 atoms
  create_atoms CPU = 0.04685 secs
WARNING: Using 'neigh_modify every 1 delay 0 check yes' setting during minimization (../min.cpp:190)
Neighbor list info ...
  update every 1 steps, delay 0 steps, check yes
  max neighbors/atom: 2000, page size: 100000
  master list distance cutoff = 8.3
  ghost atom cutoff = 8.3
  binsize = 4.15, bins = 23 23 23
  1 neighbor lists, perpetual/occasional/extra = 1 0 0
  (1) pair eam/fs, perpetual
      attributes: half, newton on
      pair build: half/bin/atomonly/newton
      stencil: half/bin/3d/newton
      bin: standard
Setting up sd style minimization ...
  Unit style    : metal
  Current step  : 0
Per MPI rank memory allocation (min/avg/max) = 4.577 | 4.577 | 4.577 Mbytes
Step Temp E_pair E_mol TotEng Press 
       0            0   -48852.392            0   -48852.392    1042.8034 
       1            0   -48852.392            0   -48852.392    1042.8034 
Loop time of 0.102997 on 40 procs for 1 steps with 32000 atoms

22.4% CPU use with 40 MPI tasks x no OpenMP threads

Minimization stats:
  Stopping criterion = energy tolerance
  Energy initial, next-to-last, final = 
        -48852.3920498     -48852.3920498     -48852.3920498
  Force two-norm initial, final = 3.2341e-12 3.2046e-12
  Force max component initial, final = 2.06311e-14 2.08826e-14
  Final line search alpha, max atom move = 1 2.08826e-14
  Iterations, force evaluations = 1 2

MPI task timing breakdown:
Section |  min time  |  avg time  |  max time  |%varavg| %total
---------------------------------------------------------------
Pair    | 0.020421   | 0.026      | 0.038893   |   2.4 | 25.24
Neigh   | 0          | 0          | 0          |   0.0 |  0.00
Comm    | 0.014914   | 0.024236   | 0.029693   |   2.6 | 23.53
Output  | 0          | 0          | 0          |   0.0 |  0.00
Modify  | 0          | 0          | 0          |   0.0 |  0.00
Other   |            | 0.05276    |            |       | 51.23

Nlocal:    800 ave 800 max 800 min
Histogram: 40 0 0 0 0 0 0 0 0 0
Nghost:    2642 ave 2642 max 2642 min
Histogram: 40 0 0 0 0 0 0 0 0 0
Neighs:    34400 ave 35379 max 33430 min
Histogram: 4 8 4 2 2 2 2 4 8 4

Total # of neighbors = 1376000
Ave neighs/atom = 43
Neighbor list builds = 0
Dangerous builds = 0
@@@@  (energy per atom): 4.688 -1.52663725155496 25.757447168 0.104280335601196 -1.50987258652018
Lattice spacing in x,y,z = 4.6875 4.6875 4.6875
Created orthogonal box = (0 0 0) to (93.75 93.75 93.75)
  2 by 4 by 5 MPI processor grid
Created 32000 atoms
  create_atoms CPU = 0.026969 secs
WARNING: Using 'neigh_modify every 1 delay 0 check yes' setting during minimization (../min.cpp:190)
Neighbor list info ...
  update every 1 steps, delay 0 steps, check yes
  max neighbors/atom: 2000, page size: 100000
  master list distance cutoff = 8.3
  ghost atom cutoff = 8.3
  binsize = 4.15, bins = 23 23 23
  1 neighbor lists, perpetual/occasional/extra = 1 0 0
  (1) pair eam/fs, perpetual
      attributes: half, newton on
      pair build: half/bin/atomonly/newton
      stencil: half/bin/3d/newton
      bin: standard
Setting up sd style minimization ...
  Unit style    : metal
  Current step  : 0
Per MPI rank memory allocation (min/avg/max) = 4.577 | 4.577 | 4.577 Mbytes
Step Temp E_pair E_mol TotEng Press 
       0            0   -48852.213            0   -48852.213    1127.2654 
       1            0   -48852.213            0   -48852.213    1127.2654 
Loop time of 0.117707 on 40 procs for 1 steps with 32000 atoms

22.7% CPU use with 40 MPI tasks x no OpenMP threads

Minimization stats:
  Stopping criterion = quadratic factors are zero
  Energy initial, next-to-last, final = 
        -48852.2134677     -48852.2134677     -48852.2134677
  Force two-norm initial, final = 4.8086e-15 4.8086e-15
  Force max component initial, final = 8.32667e-17 8.32667e-17
  Final line search alpha, max atom move = 1 8.32667e-17
  Iterations, force evaluations = 1 2

MPI task timing breakdown:
Section |  min time  |  avg time  |  max time  |%varavg| %total
---------------------------------------------------------------
Pair    | 0.02194    | 0.034671   | 0.045881   |   3.6 | 29.46
Neigh   | 0          | 0          | 0          |   0.0 |  0.00
Comm    | 0.02301    | 0.03715    | 0.058706   |   4.3 | 31.56
Output  | 0          | 0          | 0          |   0.0 |  0.00
Modify  | 0          | 0          | 0          |   0.0 |  0.00
Other   |            | 0.04589    |            |       | 38.98

Nlocal:    800 ave 800 max 800 min
Histogram: 40 0 0 0 0 0 0 0 0 0
Nghost:    2642 ave 2642 max 2642 min
Histogram: 40 0 0 0 0 0 0 0 0 0
Neighs:    34400 ave 35115 max 33685 min
Histogram: 16 0 0 0 0 8 0 0 0 16

Total # of neighbors = 1376000
Ave neighs/atom = 43
Neighbor list builds = 0
Dangerous builds = 0
@@@@  (energy per atom): 4.6875 -1.52663167086569 25.7492065429688 0.112726542311636 -1.5085149463921
Lattice spacing in x,y,z = 4.687 4.687 4.687
Created orthogonal box = (0 0 0) to (93.74 93.74 93.74)
  2 by 4 by 5 MPI processor grid
Created 32000 atoms
  create_atoms CPU = 0.037529 secs
WARNING: Using 'neigh_modify every 1 delay 0 check yes' setting during minimization (../min.cpp:190)
Neighbor list info ...
  update every 1 steps, delay 0 steps, check yes
  max neighbors/atom: 2000, page size: 100000
  master list distance cutoff = 8.3
  ghost atom cutoff = 8.3
  binsize = 4.15, bins = 23 23 23
  1 neighbor lists, perpetual/occasional/extra = 1 0 0
  (1) pair eam/fs, perpetual
      attributes: half, newton on
      pair build: half/bin/atomonly/newton
      stencil: half/bin/3d/newton
      bin: standard
Setting up sd style minimization ...
  Unit style    : metal
  Current step  : 0
Per MPI rank memory allocation (min/avg/max) = 4.548 | 4.568 | 4.577 Mbytes
Step Temp E_pair E_mol TotEng Press 
       0            0   -48852.021            0   -48852.021    1211.8735 
       1            0   -48852.021            0   -48852.021    1211.8735 
Loop time of 0.0876947 on 40 procs for 1 steps with 32000 atoms

22.7% CPU use with 40 MPI tasks x no OpenMP threads

Minimization stats:
  Stopping criterion = energy tolerance
  Energy initial, next-to-last, final = 
        -48852.0210132     -48852.0210132     -48852.0210132
  Force two-norm initial, final = 3.38678e-12 3.3434e-12
  Force max component initial, final = 2.09589e-14 2.192e-14
  Final line search alpha, max atom move = 1 2.192e-14
  Iterations, force evaluations = 1 2

MPI task timing breakdown:
Section |  min time  |  avg time  |  max time  |%varavg| %total
---------------------------------------------------------------
Pair    | 0.02861    | 0.035819   | 0.045861   |   1.8 | 40.85
Neigh   | 0          | 0          | 0          |   0.0 |  0.00
Comm    | 0.012317   | 0.023581   | 0.036466   |   4.3 | 26.89
Output  | 0          | 0          | 0          |   0.0 |  0.00
Modify  | 0          | 0          | 0          |   0.0 |  0.00
Other   |            | 0.02829    |            |       | 32.27

Nlocal:    800 ave 900 max 700 min
Histogram: 8 0 0 0 0 24 0 0 0 8
Nghost:    2642 ave 2742 max 2542 min
Histogram: 8 0 0 0 0 24 0 0 0 8
Neighs:    34400 ave 39004 max 29870 min
Histogram: 8 0 0 2 11 10 1 0 0 8

Total # of neighbors = 1376000
Ave neighs/atom = 43
Neighbor list builds = 0
Dangerous builds = 0
@@@@  (energy per atom): 4.687 -1.52662565666334 25.74096767575 0.121187350343129 -1.50715539438017
Lattice spacing in x,y,z = 4.6865 4.6865 4.6865
Created orthogonal box = (0 0 0) to (93.73 93.73 93.73)
  2 by 4 by 5 MPI processor grid
Created 32000 atoms
  create_atoms CPU = 0.014612 secs
WARNING: Using 'neigh_modify every 1 delay 0 check yes' setting during minimization (../min.cpp:190)
Neighbor list info ...
  update every 1 steps, delay 0 steps, check yes
  max neighbors/atom: 2000, page size: 100000
  master list distance cutoff = 8.3
  ghost atom cutoff = 8.3
  binsize = 4.15, bins = 23 23 23
  1 neighbor lists, perpetual/occasional/extra = 1 0 0
  (1) pair eam/fs, perpetual
      attributes: half, newton on
      pair build: half/bin/atomonly/newton
      stencil: half/bin/3d/newton
      bin: standard
Setting up sd style minimization ...
  Unit style    : metal
  Current step  : 0
Per MPI rank memory allocation (min/avg/max) = 4.577 | 4.577 | 4.577 Mbytes
Step Temp E_pair E_mol TotEng Press 
       0            0   -48851.815            0   -48851.815    1296.6277 
       1            0   -48851.815            0   -48851.815    1296.6277 
Loop time of 0.077558 on 40 procs for 1 steps with 32000 atoms

22.3% CPU use with 40 MPI tasks x no OpenMP threads

Minimization stats:
  Stopping criterion = energy tolerance
  Energy initial, next-to-last, final = 
        -48851.8146682     -48851.8146682     -48851.8146682
  Force two-norm initial, final = 2.44877e-12 2.43209e-12
  Force max component initial, final = 2.04628e-14 2.06918e-14
  Final line search alpha, max atom move = 1 2.06918e-14
  Iterations, force evaluations = 1 2

MPI task timing breakdown:
Section |  min time  |  avg time  |  max time  |%varavg| %total
---------------------------------------------------------------
Pair    | 0.015091   | 0.023288   | 0.035276   |   2.7 | 30.03
Neigh   | 0          | 0          | 0          |   0.0 |  0.00
Comm    | 0.017904   | 0.03021    | 0.038101   |   3.1 | 38.95
Output  | 0          | 0          | 0          |   0.0 |  0.00
Modify  | 0          | 0          | 0          |   0.0 |  0.00
Other   |            | 0.02406    |            |       | 31.02

Nlocal:    800 ave 800 max 800 min
Histogram: 40 0 0 0 0 0 0 0 0 0
Nghost:    2642 ave 2642 max 2642 min
Histogram: 40 0 0 0 0 0 0 0 0 0
Neighs:    34400 ave 35115 max 33685 min
Histogram: 16 0 0 0 0 8 0 0 0 16

Total # of neighbors = 1376000
Ave neighs/atom = 43
Neighbor list builds = 0
Dangerous builds = 0
@@@@  (energy per atom): 4.6865 -1.52661920837995 25.7327305661562 0.129662770081774 -1.50579393022255
Lattice spacing in x,y,z = 4.686 4.686 4.686
Created orthogonal box = (0 0 0) to (93.72 93.72 93.72)
  2 by 4 by 5 MPI processor grid
Created 32000 atoms
  create_atoms CPU = 0.0335031 secs
WARNING: Using 'neigh_modify every 1 delay 0 check yes' setting during minimization (../min.cpp:190)
Neighbor list info ...
  update every 1 steps, delay 0 steps, check yes
  max neighbors/atom: 2000, page size: 100000
  master list distance cutoff = 8.3
  ghost atom cutoff = 8.3
  binsize = 4.15, bins = 23 23 23
  1 neighbor lists, perpetual/occasional/extra = 1 0 0
  (1) pair eam/fs, perpetual
      attributes: half, newton on
      pair build: half/bin/atomonly/newton
      stencil: half/bin/3d/newton
      bin: standard
Setting up sd style minimization ...
  Unit style    : metal
  Current step  : 0
Per MPI rank memory allocation (min/avg/max) = 4.577 | 4.577 | 4.577 Mbytes
Step Temp E_pair E_mol TotEng Press 
       0            0   -48851.594            0   -48851.594    1381.5281 
       1            0   -48851.594            0   -48851.594    1381.5281 
Loop time of 0.078946 on 40 procs for 1 steps with 32000 atoms

22.9% CPU use with 40 MPI tasks x no OpenMP threads

Minimization stats:
  Stopping criterion = energy tolerance
  Energy initial, next-to-last, final = 
        -48851.5944145     -48851.5944145     -48851.5944145
  Force two-norm initial, final = 2.64936e-12 2.64568e-12
  Force max component initial, final = 2.00447e-14 2.1063e-14
  Final line search alpha, max atom move = 1 2.1063e-14
  Iterations, force evaluations = 1 2

MPI task timing breakdown:
Section |  min time  |  avg time  |  max time  |%varavg| %total
---------------------------------------------------------------
Pair    | 0.014895   | 0.020671   | 0.026247   |   2.5 | 26.18
Neigh   | 0          | 0          | 0          |   0.0 |  0.00
Comm    | 0.021691   | 0.028646   | 0.036075   |   2.4 | 36.29
Output  | 0          | 0          | 0          |   0.0 |  0.00
Modify  | 0          | 0          | 0          |   0.0 |  0.00
Other   |            | 0.02963    |            |       | 37.53

Nlocal:    800 ave 800 max 800 min
Histogram: 40 0 0 0 0 0 0 0 0 0
Nghost:    2642 ave 2642 max 2642 min
Histogram: 40 0 0 0 0 0 0 0 0 0
Neighs:    34400 ave 35115 max 33685 min
Histogram: 16 0 0 0 0 8 0 0 0 16

Total # of neighbors = 1376000
Ave neighs/atom = 43
Neighbor list builds = 0
Dangerous builds = 0
@@@@  (energy per atom): 4.686 -1.52661232545226 25.724495214 0.138152814201631 -1.50443055329588
Lattice spacing in x,y,z = 4.6855 4.6855 4.6855
Created orthogonal box = (0 0 0) to (93.71 93.71 93.71)
  4 by 2 by 5 MPI processor grid
Created 32000 atoms
  create_atoms CPU = 0.0255871 secs
WARNING: Using 'neigh_modify every 1 delay 0 check yes' setting during minimization (../min.cpp:190)
Neighbor list info ...
  update every 1 steps, delay 0 steps, check yes
  max neighbors/atom: 2000, page size: 100000
  master list distance cutoff = 8.3
  ghost atom cutoff = 8.3
  binsize = 4.15, bins = 23 23 23
  1 neighbor lists, perpetual/occasional/extra = 1 0 0
  (1) pair eam/fs, perpetual
      attributes: half, newton on
      pair build: half/bin/atomonly/newton
      stencil: half/bin/3d/newton
      bin: standard
Setting up sd style minimization ...
  Unit style    : metal
  Current step  : 0
Per MPI rank memory allocation (min/avg/max) = 4.561 | 4.57 | 4.577 Mbytes
Step Temp E_pair E_mol TotEng Press 
       0            0    -48851.36            0    -48851.36    1466.5749 
       1            0    -48851.36            0    -48851.36    1466.5749 
Loop time of 0.10917 on 40 procs for 1 steps with 32000 atoms

22.1% CPU use with 40 MPI tasks x no OpenMP threads

Minimization stats:
  Stopping criterion = energy tolerance
  Energy initial, next-to-last, final = 
         -48851.360234      -48851.360234      -48851.360234
  Force two-norm initial, final = 3.02352e-12 2.96172e-12
  Force max component initial, final = 2.05044e-14 2.23398e-14
  Final line search alpha, max atom move = 1 2.23398e-14
  Iterations, force evaluations = 1 2

MPI task timing breakdown:
Section |  min time  |  avg time  |  max time  |%varavg| %total
---------------------------------------------------------------
Pair    | 0.017336   | 0.023414   | 0.036787   |   2.8 | 21.45
Neigh   | 0          | 0          | 0          |   0.0 |  0.00
Comm    | 0.015437   | 0.036945   | 0.052519   |   4.0 | 33.84
Output  | 0          | 0          | 0          |   0.0 |  0.00
Modify  | 0          | 0          | 0          |   0.0 |  0.00
Other   |            | 0.04881    |            |       | 44.71

Nlocal:    800 ave 900 max 700 min
Histogram: 8 0 0 0 0 24 0 0 0 8
Nghost:    2642 ave 2742 max 2542 min
Histogram: 8 0 0 0 0 24 0 0 0 8
Neighs:    34400 ave 38700 max 30100 min
Histogram: 8 0 0 0 8 16 0 0 0 8

Total # of neighbors = 1376000
Ave neighs/atom = 43
Neighbor list builds = 0
Dangerous builds = 0
@@@@  (energy per atom): 4.6855 -1.52660500731311 25.7162616190938 0.146657493584715 -1.50306526326229
Lattice spacing in x,y,z = 4.685 4.685 4.685
Created orthogonal box = (0 0 0) to (93.7 93.7 93.7)
  2 by 4 by 5 MPI processor grid
Created 32000 atoms
  create_atoms CPU = 0.0276191 secs
WARNING: Using 'neigh_modify every 1 delay 0 check yes' setting during minimization (../min.cpp:190)
Neighbor list info ...
  update every 1 steps, delay 0 steps, check yes
  max neighbors/atom: 2000, page size: 100000
  master list distance cutoff = 8.3
  ghost atom cutoff = 8.3
  binsize = 4.15, bins = 23 23 23
  1 neighbor lists, perpetual/occasional/extra = 1 0 0
  (1) pair eam/fs, perpetual
      attributes: half, newton on
      pair build: half/bin/atomonly/newton
      stencil: half/bin/3d/newton
      bin: standard
Setting up sd style minimization ...
  Unit style    : metal
  Current step  : 0
Per MPI rank memory allocation (min/avg/max) = 4.577 | 4.577 | 4.577 Mbytes
Step Temp E_pair E_mol TotEng Press 
       0            0   -48851.112            0   -48851.112    1551.7682 
       1            0   -48851.112            0   -48851.112    1551.7682 
Loop time of 0.098823 on 40 procs for 1 steps with 32000 atoms

23.1% CPU use with 40 MPI tasks x no OpenMP threads

Minimization stats:
  Stopping criterion = energy tolerance
  Energy initial, next-to-last, final = 
        -48851.1121087     -48851.1121087     -48851.1121087
  Force two-norm initial, final = 1.78213e-12 1.75763e-12
  Force max component initial, final = 1.97394e-14 1.99077e-14
  Final line search alpha, max atom move = 1 1.99077e-14
  Iterations, force evaluations = 1 2

MPI task timing breakdown:
Section |  min time  |  avg time  |  max time  |%varavg| %total
---------------------------------------------------------------
Pair    | 0.021482   | 0.031335   | 0.043006   |   2.5 | 31.71
Neigh   | 0          | 0          | 0          |   0.0 |  0.00
Comm    | 0.0052803  | 0.019881   | 0.034108   |   3.7 | 20.12
Output  | 0          | 0          | 0          |   0.0 |  0.00
Modify  | 0          | 0          | 0          |   0.0 |  0.00
Other   |            | 0.04761    |            |       | 48.17

Nlocal:    800 ave 800 max 800 min
Histogram: 40 0 0 0 0 0 0 0 0 0
Nghost:    2642 ave 2642 max 2642 min
Histogram: 40 0 0 0 0 0 0 0 0 0
Neighs:    34400 ave 35115 max 33685 min
Histogram: 16 0 0 0 0 8 0 0 0 16

Total # of neighbors = 1376000
Ave neighs/atom = 43
Neighbor list builds = 0
Dangerous builds = 0
@@@@  (energy per atom): 4.685 -1.52659725339619 25.70802978125 0.155176820115087 -1.50169805962523
Lattice spacing in x,y,z = 4.6845 4.6845 4.6845
Created orthogonal box = (0 0 0) to (93.69 93.69 93.69)
  2 by 4 by 5 MPI processor grid
Created 32000 atoms
  create_atoms CPU = 0.056973 secs
WARNING: Using 'neigh_modify every 1 delay 0 check yes' setting during minimization (../min.cpp:190)
Neighbor list info ...
  update every 1 steps, delay 0 steps, check yes
  max neighbors/atom: 2000, page size: 100000
  master list distance cutoff = 8.3
  ghost atom cutoff = 8.3
  binsize = 4.15, bins = 23 23 23
  1 neighbor lists, perpetual/occasional/extra = 1 0 0
  (1) pair eam/fs, perpetual
      attributes: half, newton on
      pair build: half/bin/atomonly/newton
      stencil: half/bin/3d/newton
      bin: standard
Setting up sd style minimization ...
  Unit style    : metal
  Current step  : 0
Per MPI rank memory allocation (min/avg/max) = 4.577 | 4.577 | 4.577 Mbytes
Step Temp E_pair E_mol TotEng Press 
       0            0    -48850.85            0    -48850.85    1637.1081 
       5            0    -48850.85            0    -48850.85    1637.1081 
Loop time of 0.287545 on 40 procs for 5 steps with 32000 atoms

22.8% CPU use with 40 MPI tasks x no OpenMP threads

Minimization stats:
  Stopping criterion = energy tolerance
  Energy initial, next-to-last, final = 
        -48850.8500204     -48850.8500204     -48850.8500204
  Force two-norm initial, final = 2.44933e-12 2.66711e-12
  Force max component initial, final = 2.0265e-14 3.22849e-14
  Final line search alpha, max atom move = 1 3.22849e-14
  Iterations, force evaluations = 5 10

MPI task timing breakdown:
Section |  min time  |  avg time  |  max time  |%varavg| %total
---------------------------------------------------------------
Pair    | 0.066272   | 0.079629   | 0.10085    |   2.5 | 27.69
Neigh   | 0          | 0          | 0          |   0.0 |  0.00
Comm    | 0.048196   | 0.068033   | 0.094329   |   4.0 | 23.66
Output  | 0          | 0          | 0          |   0.0 |  0.00
Modify  | 0          | 0          | 0          |   0.0 |  0.00
Other   |            | 0.1399     |            |       | 48.65

Nlocal:    800 ave 800 max 800 min
Histogram: 40 0 0 0 0 0 0 0 0 0
Nghost:    2642 ave 2642 max 2642 min
Histogram: 40 0 0 0 0 0 0 0 0 0
Neighs:    34400 ave 35115 max 33685 min
Histogram: 16 0 0 0 0 8 0 0 0 16

Total # of neighbors = 1376000
Ave neighs/atom = 43
Neighbor list builds = 0
Dangerous builds = 0
@@@@  (energy per atom): 4.6845 -1.52658906313704 25.6997997002812 0.163710806151741 -1.50032894181538
Lattice spacing in x,y,z = 4.684 4.684 4.684
Created orthogonal box = (0 0 0) to (93.68 93.68 93.68)
  2 by 4 by 5 MPI processor grid
Created 32000 atoms
  create_atoms CPU = 0.0223429 secs
WARNING: Using 'neigh_modify every 1 delay 0 check yes' setting during minimization (../min.cpp:190)
Neighbor list info ...
  update every 1 steps, delay 0 steps, check yes
  max neighbors/atom: 2000, page size: 100000
  master list distance cutoff = 8.3
  ghost atom cutoff = 8.3
  binsize = 4.15, bins = 23 23 23
  1 neighbor lists, perpetual/occasional/extra = 1 0 0
  (1) pair eam/fs, perpetual
      attributes: half, newton on
      pair build: half/bin/atomonly/newton
      stencil: half/bin/3d/newton
      bin: standard
Setting up sd style minimization ...
  Unit style    : metal
  Current step  : 0
Per MPI rank memory allocation (min/avg/max) = 4.548 | 4.568 | 4.577 Mbytes
Step Temp E_pair E_mol TotEng Press 
       0            0   -48850.574            0   -48850.574    1722.5946 
       1            0   -48850.574            0   -48850.574    1722.5946 
Loop time of 0.0819829 on 40 procs for 1 steps with 32000 atoms

22.7% CPU use with 40 MPI tasks x no OpenMP threads

Minimization stats:
  Stopping criterion = energy tolerance
  Energy initial, next-to-last, final = 
         -48850.573951      -48850.573951      -48850.573951
  Force two-norm initial, final = 1.95294e-12 1.92807e-12
  Force max component initial, final = 2.05148e-14 2.10639e-14
  Final line search alpha, max atom move = 1 2.10639e-14
  Iterations, force evaluations = 1 2

MPI task timing breakdown:
Section |  min time  |  avg time  |  max time  |%varavg| %total
---------------------------------------------------------------
Pair    | 0.018533   | 0.024246   | 0.033039   |   2.5 | 29.57
Neigh   | 0          | 0          | 0          |   0.0 |  0.00
Comm    | 0.016498   | 0.021414   | 0.027161   |   1.8 | 26.12
Output  | 0          | 0          | 0          |   0.0 |  0.00
Modify  | 0          | 0          | 0          |   0.0 |  0.00
Other   |            | 0.03632    |            |       | 44.31

Nlocal:    800 ave 900 max 700 min
Histogram: 8 0 0 0 0 24 0 0 0 8
Nghost:    2642 ave 2742 max 2542 min
Histogram: 8 0 0 0 0 24 0 0 0 8
Neighs:    34400 ave 38700 max 30100 min
[...]
Histogram: 40 0 0 0 0 0 0 0 0 0
Nghost:    3884 ave 3884 max 3884 min
Histogram: 40 0 0 0 0 0 0 0 0 0
Neighs:    56000 ave 57764 max 54532 min
Histogram: 5 1 1 9 10 3 5 3 1 2

Total # of neighbors = 2240000
Ave neighs/atom = 70
Neighbor list builds = 0
Dangerous builds = 0
@@@@  (energy per atom): 4.052 -0.893704585804475 16.632147152 34.8484403474303 2.72390176328475
Lattice spacing in x,y,z = 4.0515 4.0515 4.0515
Created orthogonal box = (0 0 0) to (81.03 81.03 81.03)
  2 by 4 by 5 MPI processor grid
Created 32000 atoms
  create_atoms CPU = 0.035501 secs
WARNING: Using 'neigh_modify every 1 delay 0 check yes' setting during minimization (../min.cpp:190)
Neighbor list info ...
  update every 1 steps, delay 0 steps, check yes
  max neighbors/atom: 2000, page size: 100000
  master list distance cutoff = 8.3
  ghost atom cutoff = 8.3
  binsize = 4.15, bins = 20 20 20
  1 neighbor lists, perpetual/occasional/extra = 1 0 0
  (1) pair eam/fs, perpetual
      attributes: half, newton on
      pair build: half/bin/atomonly/newton
      stencil: half/bin/3d/newton
      bin: standard
Setting up sd style minimization ...
  Unit style    : metal
  Current step  : 0
Per MPI rank memory allocation (min/avg/max) = 4.633 | 4.644 | 4.653 Mbytes
Step Temp E_pair E_mol TotEng Press 
       0            0   -28555.659            0   -28555.659    349112.22 
       1            0   -28555.659            0   -28555.659    349112.22 
Loop time of 0.0675775 on 40 procs for 1 steps with 32000 atoms

24.3% CPU use with 40 MPI tasks x no OpenMP threads

Minimization stats:
  Stopping criterion = energy tolerance
  Energy initial, next-to-last, final = 
        -28555.6592738     -28555.6592738     -28555.6592738
  Force two-norm initial, final = 7.64398e-12 7.62791e-12
  Force max component initial, final = 7.06605e-14 7.4607e-14
  Final line search alpha, max atom move = 1 7.4607e-14
  Iterations, force evaluations = 1 2

MPI task timing breakdown:
Section |  min time  |  avg time  |  max time  |%varavg| %total
---------------------------------------------------------------
Pair    | 0.012307   | 0.013684   | 0.017354   |   1.0 | 20.25
Neigh   | 0          | 0          | 0          |   0.0 |  0.00
Comm    | 0.015294   | 0.020327   | 0.03512    |   3.1 | 30.08
Output  | 0          | 0          | 0          |   0.0 |  0.00
Modify  | 0          | 0          | 0          |   0.0 |  0.00
Other   |            | 0.03357    |            |       | 49.67

Nlocal:    800 ave 900 max 700 min
Histogram: 8 0 0 0 0 24 0 0 0 8
Nghost:    3884 ave 3984 max 3784 min
Histogram: 8 0 0 0 0 24 0 0 0 8
Neighs:    56000 ave 63749 max 49791 min
Histogram: 8 0 0 6 18 0 0 0 0 8

Total # of neighbors = 2240000
Ave neighs/atom = 70
Neighbor list builds = 0
Dangerous builds = 0
@@@@  (energy per atom): 4.0515 -0.892364352307058 16.6259908977188 34.911222469878 2.73041795046936
Lattice spacing in x,y,z = 4.051 4.051 4.051
Created orthogonal box = (0 0 0) to (81.02 81.02 81.02)
  2 by 4 by 5 MPI processor grid
Created 32000 atoms
  create_atoms CPU = 0.00958395 secs
WARNING: Using 'neigh_modify every 1 delay 0 check yes' setting during minimization (../min.cpp:190)
Neighbor list info ...
  update every 1 steps, delay 0 steps, check yes
  max neighbors/atom: 2000, page size: 100000
  master list distance cutoff = 8.3
  ghost atom cutoff = 8.3
  binsize = 4.15, bins = 20 20 20
  1 neighbor lists, perpetual/occasional/extra = 1 0 0
  (1) pair eam/fs, perpetual
      attributes: half, newton on
      pair build: half/bin/atomonly/newton
      stencil: half/bin/3d/newton
      bin: standard
Setting up sd style minimization ...
  Unit style    : metal
  Current step  : 0
Per MPI rank memory allocation (min/avg/max) = 4.614 | 4.629 | 4.634 Mbytes
Step Temp E_pair E_mol TotEng Press 
       0            0   -28512.705            0   -28512.705    349740.87 
       9            0   -28512.705            0   -28512.705    349740.87 
Loop time of 0.634439 on 40 procs for 9 steps with 32000 atoms

22.7% CPU use with 40 MPI tasks x no OpenMP threads

Minimization stats:
  Stopping criterion = energy tolerance
  Energy initial, next-to-last, final = 
        -28512.7051593     -28512.7051593     -28512.7051593
  Force two-norm initial, final = 9.60016e-12 9.18849e-12
  Force max component initial, final = 6.68077e-14 9.06514e-14
  Final line search alpha, max atom move = 1 9.06514e-14
  Iterations, force evaluations = 9 18

MPI task timing breakdown:
Section |  min time  |  avg time  |  max time  |%varavg| %total
---------------------------------------------------------------
Pair    | 0.17061    | 0.20517    | 0.23821    |   3.9 | 32.34
Neigh   | 0          | 0          | 0          |   0.0 |  0.00
Comm    | 0.13417    | 0.15806    | 0.18595    |   3.1 | 24.91
Output  | 0          | 0          | 0          |   0.0 |  0.00
Modify  | 0          | 0          | 0          |   0.0 |  0.00
Other   |            | 0.2712     |            |       | 42.75

Nlocal:    800 ave 990 max 630 min
Histogram: 4 8 2 4 4 4 2 8 0 4
Nghost:    3884 ave 4054 max 3694 min
Histogram: 4 0 8 2 0 8 4 2 8 4
Neighs:    56000 ave 69696 max 44318 min
Histogram: 4 4 6 2 9 1 6 4 0 4

Total # of neighbors = 2240000
Ave neighs/atom = 70
Neighbor list builds = 0
Dangerous builds = 0
@@@@  (energy per atom): 4.051 -0.891022036228598 16.61983616275 34.9740865564283 2.73694022953723
Lattice spacing in x,y,z = 4.0505 4.0505 4.0505
Created orthogonal box = (0 0 0) to (81.01 81.01 81.01)
  4 by 2 by 5 MPI processor grid
Created 32000 atoms
  create_atoms CPU = 0.0207541 secs
WARNING: Using 'neigh_modify every 1 delay 0 check yes' setting during minimization (../min.cpp:190)
Neighbor list info ...
  update every 1 steps, delay 0 steps, check yes
  max neighbors/atom: 2000, page size: 100000
  master list distance cutoff = 8.3
  ghost atom cutoff = 8.3
  binsize = 4.15, bins = 20 20 20
  1 neighbor lists, perpetual/occasional/extra = 1 0 0
  (1) pair eam/fs, perpetual
      attributes: half, newton on
      pair build: half/bin/atomonly/newton
      stencil: half/bin/3d/newton
      bin: standard
Setting up sd style minimization ...
  Unit style    : metal
  Current step  : 0
Per MPI rank memory allocation (min/avg/max) = 4.651 | 4.652 | 4.653 Mbytes
Step Temp E_pair E_mol TotEng Press 
       0            0   -28469.684            0   -28469.684    350370.33 
       1            0   -28469.684            0   -28469.684    350370.33 
Loop time of 0.116629 on 40 procs for 1 steps with 32000 atoms

23.7% CPU use with 40 MPI tasks x no OpenMP threads

Minimization stats:
  Stopping criterion = energy tolerance
  Energy initial, next-to-last, final = 
        -28469.6843383     -28469.6843383     -28469.6843383
  Force two-norm initial, final = 2.75435e-12 2.75427e-12
  Force max component initial, final = 3.95933e-14 3.95933e-14
  Final line search alpha, max atom move = 1 3.95933e-14
  Iterations, force evaluations = 1 2

MPI task timing breakdown:
Section |  min time  |  avg time  |  max time  |%varavg| %total
---------------------------------------------------------------
Pair    | 0.030245   | 0.042111   | 0.048632   |   1.7 | 36.11
Neigh   | 0          | 0          | 0          |   0.0 |  0.00
Comm    | 0.012712   | 0.026065   | 0.037356   |   3.2 | 22.35
Output  | 0          | 0          | 0          |   0.0 |  0.00
Modify  | 0          | 0          | 0          |   0.0 |  0.00
Other   |            | 0.04845    |            |       | 41.54

Nlocal:    800 ave 800 max 800 min
Histogram: 40 0 0 0 0 0 0 0 0 0
Nghost:    3884 ave 3884 max 3884 min
Histogram: 40 0 0 0 0 0 0 0 0 0
Neighs:    56000 ave 57539 max 54534 min
Histogram: 4 1 3 6 6 9 3 3 1 4

Total # of neighbors = 2240000
Ave neighs/atom = 70
Neighbor list builds = 0
Dangerous builds = 0
@@@@  (energy per atom): 4.0505 -0.889677635571622 16.6136829469063 35.03703264161 2.74346859836773
Lattice spacing in x,y,z = 4.05 4.05 4.05
Created orthogonal box = (0 0 0) to (81 81 81)
  2 by 4 by 5 MPI processor grid
Created 32000 atoms
  create_atoms CPU = 0.0105379 secs
WARNING: Using 'neigh_modify every 1 delay 0 check yes' setting during minimization (../min.cpp:190)
Neighbor list info ...
  update every 1 steps, delay 0 steps, check yes
  max neighbors/atom: 2000, page size: 100000
  master list distance cutoff = 8.3
  ghost atom cutoff = 8.3
  binsize = 4.15, bins = 20 20 20
  1 neighbor lists, perpetual/occasional/extra = 1 0 0
  (1) pair eam/fs, perpetual
      attributes: half, newton on
      pair build: half/bin/atomonly/newton
      stencil: half/bin/3d/newton
      bin: standard
Setting up sd style minimization ...
  Unit style    : metal
  Current step  : 0
Per MPI rank memory allocation (min/avg/max) = 4.633 | 4.644 | 4.653 Mbytes
Step Temp E_pair E_mol TotEng Press 
       0            0   -28426.597            0   -28426.597    351000.61 
       2            0   -28426.597            0   -28426.597    351000.61 
Loop time of 0.116565 on 40 procs for 2 steps with 32000 atoms

22.9% CPU use with 40 MPI tasks x no OpenMP threads

Minimization stats:
  Stopping criterion = energy tolerance
  Energy initial, next-to-last, final = 
        -28426.5967468     -28426.5967468     -28426.5967468
  Force two-norm initial, final = 9.61127e-12 9.53893e-12
  Force max component initial, final = 7.06466e-14 7.38298e-14
  Final line search alpha, max atom move = 1 7.38298e-14
  Iterations, force evaluations = 2 4

MPI task timing breakdown:
Section |  min time  |  avg time  |  max time  |%varavg| %total
---------------------------------------------------------------
Pair    | 0.028478   | 0.035051   | 0.051928   |   2.0 | 30.07
Neigh   | 0          | 0          | 0          |   0.0 |  0.00
Comm    | 0.024643   | 0.03997    | 0.056592   |   3.6 | 34.29
Output  | 0          | 0          | 0          |   0.0 |  0.00
Modify  | 0          | 0          | 0          |   0.0 |  0.00
Other   |            | 0.04154    |            |       | 35.64

Nlocal:    800 ave 900 max 700 min
Histogram: 8 0 0 0 0 24 0 0 0 8
Nghost:    3884 ave 3984 max 3784 min
Histogram: 8 0 0 0 0 24 0 0 0 8
Neighs:    56000 ave 63749 max 49791 min
Histogram: 8 0 0 6 18 0 0 0 0 8

Total # of neighbors = 2240000
Ave neighs/atom = 70
Neighbor list builds = 0
Dangerous builds = 0
@@@@  (energy per atom): 4.05 -0.888331148338684 16.60753125 35.1000607730726 2.75000305619935
Lattice spacing in x,y,z = 4.0495 4.0495 4.0495
Created orthogonal box = (0 0 0) to (80.99 80.99 80.99)
  2 by 4 by 5 MPI processor grid
Created 32000 atoms
  create_atoms CPU = 0.02335 secs
WARNING: Using 'neigh_modify every 1 delay 0 check yes' setting during minimization (../min.cpp:190)
Neighbor list info ...
  update every 1 steps, delay 0 steps, check yes
  max neighbors/atom: 2000, page size: 100000
  master list distance cutoff = 8.3
  ghost atom cutoff = 8.3
  binsize = 4.15, bins = 20 20 20
  1 neighbor lists, perpetual/occasional/extra = 1 0 0
  (1) pair eam/fs, perpetual
      attributes: half, newton on
      pair build: half/bin/atomonly/newton
      stencil: half/bin/3d/newton
      bin: standard
Setting up sd style minimization ...
  Unit style    : metal
  Current step  : 0
Per MPI rank memory allocation (min/avg/max) = 4.614 | 4.629 | 4.634 Mbytes
Step Temp E_pair E_mol TotEng Press 
       0            0   -28383.442            0   -28383.442    351631.71 
      10            0   -28383.442            0   -28383.442    351631.71 
      20            0   -28383.442            0   -28383.442    351631.71 
      30            0   -28383.442            0   -28383.442    351631.71 
      40            0   -28383.442            0   -28383.442    351631.71 
      50            0   -28383.442            0   -28383.442    351631.71 
      60            0   -28383.442            0   -28383.442    351631.71 
      70            0   -28383.442            0   -28383.442    351631.71 
      80            0   -28383.442            0   -28383.442    351631.71 
      90            0   -28383.442            0   -28383.442    351631.71 
     100            0   -28383.442            0   -28383.442    351631.71 
     110            0   -28383.442            0   -28383.442    351631.71 
     120            0   -28383.442            0   -28383.442    351631.71 
     122            0   -28383.442            0   -28383.442    351631.71 
Loop time of 7.84956 on 40 procs for 122 steps with 32000 atoms

23.0% CPU use with 40 MPI tasks x no OpenMP threads

Minimization stats:
  Stopping criterion = energy tolerance
  Energy initial, next-to-last, final = 
         -28383.442321      -28383.442321      -28383.442321
  Force two-norm initial, final = 8.86509e-12 7.94643e-12
  Force max component initial, final = 7.03049e-14 9.37028e-14
  Final line search alpha, max atom move = 1 9.37028e-14
  Iterations, force evaluations = 122 244

MPI task timing breakdown:
Section |  min time  |  avg time  |  max time  |%varavg| %total
---------------------------------------------------------------
Pair    | 2.0521     | 2.2145     | 2.4224     |   6.2 | 28.21
Neigh   | 0          | 0          | 0          |   0.0 |  0.00
Comm    | 1.8568     | 2.072      | 2.253      |   7.1 | 26.40
Output  | 0.13511    | 0.1435     | 0.15045    |   0.8 |  1.83
Modify  | 0          | 0          | 0          |   0.0 |  0.00
Other   |            | 3.42       |            |       | 43.56

Nlocal:    800 ave 990 max 630 min
Histogram: 4 8 2 4 4 4 2 8 0 4
Nghost:    3884 ave 4054 max 3694 min
Histogram: 4 0 8 2 0 8 4 2 8 4
Neighs:    56000 ave 69696 max 44318 min
Histogram: 4 4 6 2 9 1 6 4 0 4

Total # of neighbors = 2240000
Ave neighs/atom = 70
Neighbor list builds = 0
Dangerous builds = 0
@@@@  (energy per atom): 4.0495 -0.886982572532207 16.6013810718438 35.1631709843945 2.75654360080969
Lattice spacing in x,y,z = 4.049 4.049 4.049
Created orthogonal box = (0 0 0) to (80.98 80.98 80.98)
  2 by 4 by 5 MPI processor grid
Created 32000 atoms
  create_atoms CPU = 0.00191903 secs
WARNING: Using 'neigh_modify every 1 delay 0 check yes' setting during minimization (../min.cpp:190)
Neighbor list info ...
  update every 1 steps, delay 0 steps, check yes
  max neighbors/atom: 2000, page size: 100000
  master list distance cutoff = 8.3
  ghost atom cutoff = 8.3
  binsize = 4.15, bins = 20 20 20
  1 neighbor lists, perpetual/occasional/extra = 1 0 0
  (1) pair eam/fs, perpetual
      attributes: half, newton on
      pair build: half/bin/atomonly/newton
      stencil: half/bin/3d/newton
      bin: standard
Setting up sd style minimization ...
  Unit style    : metal
  Current step  : 0
Per MPI rank memory allocation (min/avg/max) = 4.651 | 4.652 | 4.653 Mbytes
Step Temp E_pair E_mol TotEng Press 
       0            0   -28340.221            0   -28340.221    352263.63 
       2            0   -28340.221            0   -28340.221    352263.63 
Loop time of 0.144564 on 40 procs for 2 steps with 32000 atoms

22.4% CPU use with 40 MPI tasks x no OpenMP threads

Minimization stats:
  Stopping criterion = energy tolerance
  Energy initial, next-to-last, final = 
         -28340.220997      -28340.220997      -28340.220997
  Force two-norm initial, final = 8.91544e-12 8.87775e-12
  Force max component initial, final = 7.00828e-14 6.93542e-14
  Final line search alpha, max atom move = 1 6.93542e-14
  Iterations, force evaluations = 2 4

MPI task timing breakdown:
Section |  min time  |  avg time  |  max time  |%varavg| %total
---------------------------------------------------------------
Pair    | 0.041874   | 0.046366   | 0.054535   |   1.3 | 32.07
Neigh   | 0          | 0          | 0          |   0.0 |  0.00
Comm    | 0.024601   | 0.036645   | 0.046799   |   2.7 | 25.35
Output  | 0          | 0          | 0          |   0.0 |  0.00
Modify  | 0          | 0          | 0          |   0.0 |  0.00
Other   |            | 0.06155    |            |       | 42.58

Nlocal:    800 ave 800 max 800 min
Histogram: 40 0 0 0 0 0 0 0 0 0
Nghost:    3884 ave 3884 max 3884 min
Histogram: 40 0 0 0 0 0 0 0 0 0
Neighs:    56000 ave 57764 max 54532 min
Histogram: 5 1 1 9 10 3 5 3 1 2

Total # of neighbors = 2240000
Ave neighs/atom = 70
Neighbor list builds = 0
Dangerous builds = 0
@@@@  (energy per atom): 4.049 -0.885631906156656 16.59523241225 35.22636332257 2.7630902313632
Lattice spacing in x,y,z = 4.0485 4.0485 4.0485
Created orthogonal box = (0 0 0) to (80.97 80.97 80.97)
  2 by 4 by 5 MPI processor grid
Created 32000 atoms
  create_atoms CPU = 0.0237021 secs
WARNING: Using 'neigh_modify every 1 delay 0 check yes' setting during minimization (../min.cpp:190)
Neighbor list info ...
  update every 1 steps, delay 0 steps, check yes
  max neighbors/atom: 2000, page size: 100000
  master list distance cutoff = 8.3
  ghost atom cutoff = 8.3
  binsize = 4.15, bins = 20 20 20
  1 neighbor lists, perpetual/occasional/extra = 1 0 0
  (1) pair eam/fs, perpetual
      attributes: half, newton on
      pair build: half/bin/atomonly/newton
      stencil: half/bin/3d/newton
      bin: standard
Setting up sd style minimization ...
  Unit style    : metal
  Current step  : 0
Per MPI rank memory allocation (min/avg/max) = 4.633 | 4.644 | 4.653 Mbytes
Step Temp E_pair E_mol TotEng Press 
       0            0   -28296.933            0   -28296.933    352896.38 
      10            0   -28296.933            0   -28296.933    352896.38 
      20            0   -28296.933            0   -28296.933    352896.38 
      30            0   -28296.933            0   -28296.933    352896.38 
      40            0   -28296.933            0   -28296.933    352896.38 
      50            0   -28296.933            0   -28296.933    352896.38 
      60            0   -28296.933            0   -28296.933    352896.38 
      70            0   -28296.933            0   -28296.933    352896.38 
      80            0   -28296.933            0   -28296.933    352896.38 
      90            0   -28296.933            0   -28296.933    352896.38 
     100            0   -28296.933            0   -28296.933    352896.38 
     110            0   -28296.933            0   -28296.933    352896.38 
     120            0   -28296.933            0   -28296.933    352896.38 
     130            0   -28296.933            0   -28296.933    352896.38 
     140            0   -28296.933            0   -28296.933    352896.38 
     150            0   -28296.933            0   -28296.933    352896.38 
     160            0   -28296.933            0   -28296.933    352896.38 
     170            0   -28296.933            0   -28296.933    352896.38 
     180            0   -28296.933            0   -28296.933    352896.38 
     190            0   -28296.933            0   -28296.933    352896.38 
     200            0   -28296.933            0   -28296.933    352896.38 
     210            0   -28296.933            0   -28296.933    352896.38 
     220            0   -28296.933            0   -28296.933    352896.38 
     230            0   -28296.933            0   -28296.933    352896.38 
     240            0   -28296.933            0   -28296.933    352896.38 
     250            0   -28296.933            0   -28296.933    352896.38 
     260            0   -28296.933            0   -28296.933    352896.38 
     270            0   -28296.933            0   -28296.933    352896.38 
     280            0   -28296.933            0   -28296.933    352896.38 
     290            0   -28296.933            0   -28296.933    352896.38 
     300            0   -28296.933            0   -28296.933    352896.38 
     310            0   -28296.933            0   -28296.933    352896.38 
     320            0   -28296.933            0   -28296.933    352896.38 
     330            0   -28296.933            0   -28296.933    352896.38 
     340            0   -28296.933            0   -28296.933    352896.38 
     350            0   -28296.933            0   -28296.933    352896.38 
     360            0   -28296.933            0   -28296.933    352896.38 
