LAMMPS (3 Mar 2020)
Lattice spacing in x,y,z = 5.88811 3.3995 5.52079
Created orthogonal box = (0 0 0) to (117.762 67.99 110.416)
  5 by 2 by 4 MPI processor grid
Created 32000 atoms
  create_atoms CPU = 0.0275929 secs
WARNING: Using 'neigh_modify every 1 delay 0 check yes' setting during minimization (../min.cpp:190)
Neighbor list info ...
  update every 1 steps, delay 0 steps, check yes
  max neighbors/atom: 2000, page size: 100000
  master list distance cutoff = 8.3
  ghost atom cutoff = 8.3
  binsize = 4.15, bins = 29 17 27
  1 neighbor lists, perpetual/occasional/extra = 1 0 0
  (1) pair eam/fs, perpetual
      attributes: half, newton on
      pair build: half/bin/atomonly/newton
      stencil: half/bin/3d/newton
      bin: standard
Setting up sd style minimization ...
  Unit style    : metal
  Current step  : 0
Per MPI rank memory allocation (min/avg/max) = 4.557 | 4.557 | 4.558 Mbytes
Step Temp E_pair E_mol TotEng Press 
       0            0   -48699.372            0   -48699.372   -12314.372 
       1            0   -48699.372            0   -48699.372   -12314.372 
Loop time of 0.103485 on 40 procs for 1 steps with 32000 atoms

22.2% CPU use with 40 MPI tasks x no OpenMP threads

Minimization stats:
  Stopping criterion = linesearch alpha is zero
  Energy initial, next-to-last, final = 
         -48699.372385      -48699.372385      -48699.372385
  Force two-norm initial, final = 8.12503e-10 8.12503e-10
  Force max component initial, final = 4.56956e-12 4.56956e-12
  Final line search alpha, max atom move = 0.5 2.28478e-12
  Iterations, force evaluations = 1 2

MPI task timing breakdown:
Section |  min time  |  avg time  |  max time  |%varavg| %total
---------------------------------------------------------------
Pair    | 0.021683   | 0.035634   | 0.060652   |   4.5 | 34.43
Neigh   | 0          | 0          | 0          |   0.0 |  0.00
Comm    | 0.010927   | 0.030017   | 0.046275   |   4.6 | 29.01
Output  | 0          | 0          | 0          |   0.0 |  0.00
Modify  | 0          | 0          | 0          |   0.0 |  0.00
Other   |            | 0.03783    |            |       | 36.56

Nlocal:    800 ave 800 max 800 min
Histogram: 40 0 0 0 0 0 0 0 0 0
Nghost:    2539 ave 2539 max 2539 min
Histogram: 40 0 0 0 0 0 0 0 0 0
Neighs:    32000 ave 32071 max 31929 min
Histogram: 4 2 6 0 4 12 0 6 2 4

Total # of neighbors = 1280000
Ave neighs/atom = 40
Neighbor list builds = 0
Dangerous builds = 0
@@@@  (energy per atom): 3.3995 -1.52185538703119 27.6268772189325 -1.23143716002141 -1.73419630716541
Lattice spacing in x,y,z = 5.88724 3.399 5.51998
Created orthogonal box = (0 0 0) to (117.745 67.98 110.4)
  5 by 2 by 4 MPI processor grid
Created 32000 atoms
  create_atoms CPU = 0.0322621 secs
WARNING: Using 'neigh_modify every 1 delay 0 check yes' setting during minimization (../min.cpp:190)
Neighbor list info ...
  update every 1 steps, delay 0 steps, check yes
  max neighbors/atom: 2000, page size: 100000
  master list distance cutoff = 8.3
  ghost atom cutoff = 8.3
  binsize = 4.15, bins = 29 17 27
  1 neighbor lists, perpetual/occasional/extra = 1 0 0
  (1) pair eam/fs, perpetual
      attributes: half, newton on
      pair build: half/bin/atomonly/newton
      stencil: half/bin/3d/newton
      bin: standard
Setting up sd style minimization ...
  Unit style    : metal
  Current step  : 0
Per MPI rank memory allocation (min/avg/max) = 4.557 | 4.557 | 4.558 Mbytes
Step Temp E_pair E_mol TotEng Press 
       0            0   -48702.361            0   -48702.361   -12236.532 
       4            0   -48702.361            0   -48702.361   -12236.532 
Loop time of 0.259426 on 40 procs for 4 steps with 32000 atoms

22.5% CPU use with 40 MPI tasks x no OpenMP threads

Minimization stats:
  Stopping criterion = energy tolerance
  Energy initial, next-to-last, final = 
        -48702.3606716     -48702.3606716     -48702.3606716
  Force two-norm initial, final = 7.8561e-10 4.71809e-12
  Force max component initial, final = 4.41664e-12 5.49907e-14
  Final line search alpha, max atom move = 1 5.49907e-14
  Iterations, force evaluations = 4 7

MPI task timing breakdown:
Section |  min time  |  avg time  |  max time  |%varavg| %total
---------------------------------------------------------------
Pair    | 0.067446   | 0.079405   | 0.096229   |   2.5 | 30.61
Neigh   | 0          | 0          | 0          |   0.0 |  0.00
Comm    | 0.042308   | 0.064191   | 0.084469   |   4.2 | 24.74
Output  | 0          | 0          | 0          |   0.0 |  0.00
Modify  | 0          | 0          | 0          |   0.0 |  0.00
Other   |            | 0.1158     |            |       | 44.65

Nlocal:    800 ave 800 max 800 min
Histogram: 40 0 0 0 0 0 0 0 0 0
Nghost:    2539 ave 2539 max 2539 min
Histogram: 40 0 0 0 0 0 0 0 0 0
Neighs:    32000 ave 32071 max 31929 min
Histogram: 4 2 6 0 4 12 0 6 2 4

Total # of neighbors = 1280000
Ave neighs/atom = 40
Neighbor list builds = 0
Dangerous builds = 0
@@@@  (energy per atom): 3.399 -1.5219487709888 27.6146888909235 -1.22365322158299 -1.7328543923382
Lattice spacing in x,y,z = 5.88637 3.3985 5.51916
Created orthogonal box = (0 0 0) to (117.727 67.97 110.383)
  5 by 2 by 4 MPI processor grid
Created 32000 atoms
  create_atoms CPU = 0.0261621 secs
WARNING: Using 'neigh_modify every 1 delay 0 check yes' setting during minimization (../min.cpp:190)
Neighbor list info ...
  update every 1 steps, delay 0 steps, check yes
  max neighbors/atom: 2000, page size: 100000
  master list distance cutoff = 8.3
  ghost atom cutoff = 8.3
  binsize = 4.15, bins = 29 17 27
  1 neighbor lists, perpetual/occasional/extra = 1 0 0
  (1) pair eam/fs, perpetual
      attributes: half, newton on
      pair build: half/bin/atomonly/newton
      stencil: half/bin/3d/newton
      bin: standard
Setting up sd style minimization ...
  Unit style    : metal
  Current step  : 0
Per MPI rank memory allocation (min/avg/max) = 4.557 | 4.557 | 4.558 Mbytes
Step Temp E_pair E_mol TotEng Press 
       0            0   -48705.329            0   -48705.329   -12158.373 
       1            0   -48705.329            0   -48705.329   -12158.373 
Loop time of 0.118276 on 40 procs for 1 steps with 32000 atoms

22.2% CPU use with 40 MPI tasks x no OpenMP threads

Minimization stats:
  Stopping criterion = linesearch alpha is zero
  Energy initial, next-to-last, final = 
         -48705.329097      -48705.329097      -48705.329097
  Force two-norm initial, final = 7.58753e-10 7.58753e-10
  Force max component initial, final = 4.27484e-12 4.27484e-12
  Final line search alpha, max atom move = 0.5 2.13742e-12
  Iterations, force evaluations = 1 2

MPI task timing breakdown:
Section |  min time  |  avg time  |  max time  |%varavg| %total
---------------------------------------------------------------
Pair    | 0.023309   | 0.029062   | 0.035557   |   1.5 | 24.57
Neigh   | 0          | 0          | 0          |   0.0 |  0.00
Comm    | 0.0048532  | 0.016907   | 0.020808   |   2.2 | 14.29
Output  | 0          | 0          | 0          |   0.0 |  0.00
Modify  | 0          | 0          | 0          |   0.0 |  0.00
Other   |            | 0.07231    |            |       | 61.13

Nlocal:    800 ave 850 max 750 min
Histogram: 16 0 0 0 0 8 0 0 0 16
Nghost:    2539 ave 2589 max 2489 min
Histogram: 16 0 0 0 0 8 0 0 0 16
Neighs:    32000 ave 34072 max 29944 min
Histogram: 16 0 0 0 8 0 0 0 0 16

Total # of neighbors = 1280000
Ave neighs/atom = 40
Neighbor list builds = 0
Dangerous builds = 0
@@@@  (energy per atom): 3.3985 -1.52204153428176 27.602504148244 -1.21583726510921 -1.73150755225023
Lattice spacing in x,y,z = 5.88551 3.398 5.51835
Created orthogonal box = (0 0 0) to (117.71 67.96 110.367)
  5 by 2 by 4 MPI processor grid
Created 32000 atoms
  create_atoms CPU = 0.031987 secs
WARNING: Using 'neigh_modify every 1 delay 0 check yes' setting during minimization (../min.cpp:190)
Neighbor list info ...
  update every 1 steps, delay 0 steps, check yes
  max neighbors/atom: 2000, page size: 100000
  master list distance cutoff = 8.3
  ghost atom cutoff = 8.3
  binsize = 4.15, bins = 29 17 27
  1 neighbor lists, perpetual/occasional/extra = 1 0 0
  (1) pair eam/fs, perpetual
      attributes: half, newton on
      pair build: half/bin/atomonly/newton
      stencil: half/bin/3d/newton
      bin: standard
Setting up sd style minimization ...
  Unit style    : metal
  Current step  : 0
Per MPI rank memory allocation (min/avg/max) = 4.557 | 4.557 | 4.558 Mbytes
Step Temp E_pair E_mol TotEng Press 
       0            0   -48708.278            0   -48708.278   -12079.893 
       4            0   -48708.278            0   -48708.278   -12079.893 
Loop time of 0.283544 on 40 procs for 4 steps with 32000 atoms

22.4% CPU use with 40 MPI tasks x no OpenMP threads

Minimization stats:
  Stopping criterion = energy tolerance
  Energy initial, next-to-last, final = 
        -48708.2775945     -48708.2775945     -48708.2775945
  Force two-norm initial, final = 7.31834e-10 5.15413e-12
  Force max component initial, final = 4.12648e-12 6.94687e-14
  Final line search alpha, max atom move = 1 6.94687e-14
  Iterations, force evaluations = 4 7

MPI task timing breakdown:
Section |  min time  |  avg time  |  max time  |%varavg| %total
---------------------------------------------------------------
Pair    | 0.058573   | 0.076738   | 0.095395   |   2.6 | 27.06
Neigh   | 0          | 0          | 0          |   0.0 |  0.00
Comm    | 0.041385   | 0.062213   | 0.093518   |   4.4 | 21.94
Output  | 0          | 0          | 0          |   0.0 |  0.00
Modify  | 0          | 0          | 0          |   0.0 |  0.00
Other   |            | 0.1446     |            |       | 50.99

Nlocal:    800 ave 800 max 800 min
Histogram: 40 0 0 0 0 0 0 0 0 0
Nghost:    2539 ave 2539 max 2539 min
Histogram: 40 0 0 0 0 0 0 0 0 0
Neighs:    32000 ave 32071 max 31929 min
Histogram: 4 4 4 0 4 12 0 4 4 4

Total # of neighbors = 1280000
Ave neighs/atom = 40
Neighbor list builds = 0
Dangerous builds = 0
@@@@  (energy per atom): 3.398 -1.52213367482739 27.5903229903667 -1.20798925903348 -1.73015578615924
Lattice spacing in x,y,z = 5.88464 3.3975 5.51754
Created orthogonal box = (0 0 0) to (117.693 67.95 110.351)
  5 by 2 by 4 MPI processor grid
Created 32000 atoms
  create_atoms CPU = 0.00507808 secs
WARNING: Using 'neigh_modify every 1 delay 0 check yes' setting during minimization (../min.cpp:190)
Neighbor list info ...
  update every 1 steps, delay 0 steps, check yes
  max neighbors/atom: 2000, page size: 100000
  master list distance cutoff = 8.3
  ghost atom cutoff = 8.3
  binsize = 4.15, bins = 29 17 27
  1 neighbor lists, perpetual/occasional/extra = 1 0 0
  (1) pair eam/fs, perpetual
      attributes: half, newton on
      pair build: half/bin/atomonly/newton
      stencil: half/bin/3d/newton
      bin: standard
Setting up sd style minimization ...
  Unit style    : metal
  Current step  : 0
Per MPI rank memory allocation (min/avg/max) = 4.557 | 4.557 | 4.558 Mbytes
Step Temp E_pair E_mol TotEng Press 
       0            0   -48711.206            0   -48711.206   -12001.092 
       6            0   -48711.206            0   -48711.206   -12001.092 
Loop time of 0.383028 on 40 procs for 6 steps with 32000 atoms

22.4% CPU use with 40 MPI tasks x no OpenMP threads

Minimization stats:
  Stopping criterion = energy tolerance
  Energy initial, next-to-last, final = 
        -48711.2060974     -48711.2060974     -48711.2060974
  Force two-norm initial, final = 7.05049e-10 2.00691e-12
  Force max component initial, final = 3.96472e-12 3.2233e-14
  Final line search alpha, max atom move = 1 3.2233e-14
  Iterations, force evaluations = 6 11

MPI task timing breakdown:
Section |  min time  |  avg time  |  max time  |%varavg| %total
---------------------------------------------------------------
Pair    | 0.065026   | 0.084737   | 0.12123    |   4.2 | 22.12
Neigh   | 0          | 0          | 0          |   0.0 |  0.00
Comm    | 0.051759   | 0.090616   | 0.11805    |   5.9 | 23.66
Output  | 0          | 0          | 0          |   0.0 |  0.00
Modify  | 0          | 0          | 0          |   0.0 |  0.00
Other   |            | 0.2077     |            |       | 54.22

Nlocal:    800 ave 800 max 800 min
Histogram: 40 0 0 0 0 0 0 0 0 0
Nghost:    2539 ave 2539 max 2539 min
Histogram: 40 0 0 0 0 0 0 0 0 0
Neighs:    32000 ave 32066 max 31934 min
Histogram: 4 4 4 0 4 12 0 4 4 4

Total # of neighbors = 1280000
Ave neighs/atom = 40
Neighbor list builds = 0
Dangerous builds = 0
@@@@  (energy per atom): 3.3975 -1.52222519054267 27.5781454167642 -1.20010917161113 -1.72879909329735
Lattice spacing in x,y,z = 5.88378 3.397 5.51673
Created orthogonal box = (0 0 0) to (117.676 67.94 110.335)
  5 by 2 by 4 MPI processor grid
Created 32000 atoms
  create_atoms CPU = 0.040381 secs
WARNING: Using 'neigh_modify every 1 delay 0 check yes' setting during minimization (../min.cpp:190)
Neighbor list info ...
  update every 1 steps, delay 0 steps, check yes
  max neighbors/atom: 2000, page size: 100000
  master list distance cutoff = 8.3
  ghost atom cutoff = 8.3
  binsize = 4.15, bins = 29 17 27
  1 neighbor lists, perpetual/occasional/extra = 1 0 0
  (1) pair eam/fs, perpetual
      attributes: half, newton on
      pair build: half/bin/atomonly/newton
      stencil: half/bin/3d/newton
      bin: standard
Setting up sd style minimization ...
  Unit style    : metal
  Current step  : 0
Per MPI rank memory allocation (min/avg/max) = 4.557 | 4.557 | 4.558 Mbytes
Step Temp E_pair E_mol TotEng Press 
       0            0   -48714.115            0   -48714.115    -11921.97 
       1            0   -48714.115            0   -48714.115    -11921.97 
Loop time of 0.0904038 on 40 procs for 1 steps with 32000 atoms

22.5% CPU use with 40 MPI tasks x no OpenMP threads

Minimization stats:
  Stopping criterion = linesearch alpha is zero
  Energy initial, next-to-last, final = 
         -48714.114539      -48714.114539      -48714.114539
  Force two-norm initial, final = 6.78066e-10 6.78066e-10
  Force max component initial, final = 3.82037e-12 3.82037e-12
  Final line search alpha, max atom move = 0.5 1.91018e-12
  Iterations, force evaluations = 1 2

MPI task timing breakdown:
Section |  min time  |  avg time  |  max time  |%varavg| %total
---------------------------------------------------------------
Pair    | 0.021123   | 0.025638   | 0.031293   |   2.1 | 28.36
Neigh   | 0          | 0          | 0          |   0.0 |  0.00
Comm    | 0.013658   | 0.024829   | 0.038491   |   4.3 | 27.46
Output  | 0          | 0          | 0          |   0.0 |  0.00
Modify  | 0          | 0          | 0          |   0.0 |  0.00
Other   |            | 0.03994    |            |       | 44.18

Nlocal:    800 ave 850 max 750 min
Histogram: 8 0 0 0 0 24 0 0 0 8
Nghost:    2539 ave 2589 max 2489 min
Histogram: 8 0 0 0 0 24 0 0 0 8
Neighs:    32000 ave 34072 max 29986 min
Histogram: 8 0 0 0 16 8 0 0 0 8

Total # of neighbors = 1280000
Ave neighs/atom = 40
Neighbor list builds = 0
Dangerous builds = 0
@@@@  (energy per atom): 3.397 -1.52231607934505 27.565971426909 -1.19219697104842 -1.72743747289419
Lattice spacing in x,y,z = 5.88291 3.3965 5.51592
Created orthogonal box = (0 0 0) to (117.658 67.93 110.318)
  5 by 2 by 4 MPI processor grid
Created 32000 atoms
  create_atoms CPU = 0.037569 secs
WARNING: Using 'neigh_modify every 1 delay 0 check yes' setting during minimization (../min.cpp:190)
Neighbor list info ...
  update every 1 steps, delay 0 steps, check yes
  max neighbors/atom: 2000, page size: 100000
  master list distance cutoff = 8.3
  ghost atom cutoff = 8.3
  binsize = 4.15, bins = 29 17 27
  1 neighbor lists, perpetual/occasional/extra = 1 0 0
  (1) pair eam/fs, perpetual
      attributes: half, newton on
      pair build: half/bin/atomonly/newton
      stencil: half/bin/3d/newton
      bin: standard
Setting up sd style minimization ...
  Unit style    : metal
  Current step  : 0
Per MPI rank memory allocation (min/avg/max) = 4.557 | 4.557 | 4.558 Mbytes
Step Temp E_pair E_mol TotEng Press 
       0            0   -48717.003            0   -48717.003   -11842.526 
       1            0   -48717.003            0   -48717.003   -11842.526 
Loop time of 0.0786568 on 40 procs for 1 steps with 32000 atoms

24.3% CPU use with 40 MPI tasks x no OpenMP threads

Minimization stats:
  Stopping criterion = linesearch alpha is zero
  Energy initial, next-to-last, final = 
        -48717.0028528     -48717.0028528     -48717.0028528
  Force two-norm initial, final = 6.5101e-10 6.5101e-10
  Force max component initial, final = 3.67774e-12 3.67774e-12
  Final line search alpha, max atom move = 0.5 1.83887e-12
  Iterations, force evaluations = 1 2

MPI task timing breakdown:
Section |  min time  |  avg time  |  max time  |%varavg| %total
---------------------------------------------------------------
Pair    | 0.01464    | 0.021828   | 0.033207   |   3.6 | 27.75
Neigh   | 0          | 0          | 0          |   0.0 |  0.00
Comm    | 0.0066817  | 0.025457   | 0.035269   |   3.9 | 32.36
Output  | 0          | 0          | 0          |   0.0 |  0.00
Modify  | 0          | 0          | 0          |   0.0 |  0.00
Other   |            | 0.03137    |            |       | 39.88

Nlocal:    800 ave 850 max 750 min
Histogram: 16 0 0 0 0 8 0 0 0 16
Nghost:    2539 ave 2589 max 2489 min
Histogram: 16 0 0 0 0 8 0 0 0 16
Neighs:    32000 ave 34072 max 29944 min
Histogram: 16 0 0 0 8 0 0 0 0 16

Total # of neighbors = 1280000
Ave neighs/atom = 40
Neighbor list builds = 0
Dangerous builds = 0
@@@@  (energy per atom): 3.3965 -1.52240633915072 27.5538010202738 -1.18425262513866 -1.72607092411254
Lattice spacing in x,y,z = 5.88204 3.396 5.5151
Created orthogonal box = (0 0 0) to (117.641 67.92 110.302)
  5 by 2 by 4 MPI processor grid
Created 32000 atoms
  create_atoms CPU = 0.00700212 secs
WARNING: Using 'neigh_modify every 1 delay 0 check yes' setting during minimization (../min.cpp:190)
Neighbor list info ...
  update every 1 steps, delay 0 steps, check yes
  max neighbors/atom: 2000, page size: 100000
  master list distance cutoff = 8.3
  ghost atom cutoff = 8.3
  binsize = 4.15, bins = 29 17 27
  1 neighbor lists, perpetual/occasional/extra = 1 0 0
  (1) pair eam/fs, perpetual
      attributes: half, newton on
      pair build: half/bin/atomonly/newton
      stencil: half/bin/3d/newton
      bin: standard
Setting up sd style minimization ...
  Unit style    : metal
  Current step  : 0
Per MPI rank memory allocation (min/avg/max) = 4.557 | 4.557 | 4.558 Mbytes
Step Temp E_pair E_mol TotEng Press 
       0            0   -48719.871            0   -48719.871   -11762.761 
       1            0   -48719.871            0   -48719.871   -11762.761 
Loop time of 0.130352 on 40 procs for 1 steps with 32000 atoms

22.6% CPU use with 40 MPI tasks x no OpenMP threads

Minimization stats:
  Stopping criterion = linesearch alpha is zero
  Energy initial, next-to-last, final = 
         -48719.870972      -48719.870972      -48719.870972
  Force two-norm initial, final = 6.24212e-10 6.24212e-10
  Force max component initial, final = 3.51883e-12 3.51883e-12
  Final line search alpha, max atom move = 0.5 1.75942e-12
  Iterations, force evaluations = 1 2

MPI task timing breakdown:
Section |  min time  |  avg time  |  max time  |%varavg| %total
---------------------------------------------------------------
Pair    | 0.021214   | 0.031391   | 0.03675    |   2.3 | 24.08
Neigh   | 0          | 0          | 0          |   0.0 |  0.00
Comm    | 0.0074179  | 0.020039   | 0.031693   |   4.5 | 15.37
Output  | 0          | 0          | 0          |   0.0 |  0.00
Modify  | 0          | 0          | 0          |   0.0 |  0.00
Other   |            | 0.07892    |            |       | 60.54

Nlocal:    800 ave 800 max 800 min
Histogram: 40 0 0 0 0 0 0 0 0 0
Nghost:    2539 ave 2539 max 2539 min
Histogram: 40 0 0 0 0 0 0 0 0 0
Neighs:    32000 ave 32793 max 31221 min
Histogram: 5 3 2 3 7 7 3 2 3 5

Total # of neighbors = 1280000
Ave neighs/atom = 40
Neighbor list builds = 0
Dangerous builds = 0
@@@@  (energy per atom): 3.396 -1.52249596787623 27.5416341963311 -1.17627610197888 -1.72469944617334
Lattice spacing in x,y,z = 5.88118 3.3955 5.51429
Created orthogonal box = (0 0 0) to (117.624 67.91 110.286)
  5 by 2 by 4 MPI processor grid
Created 32000 atoms
  create_atoms CPU = 0.00741816 secs
WARNING: Using 'neigh_modify every 1 delay 0 check yes' setting during minimization (../min.cpp:190)
Neighbor list info ...
  update every 1 steps, delay 0 steps, check yes
  max neighbors/atom: 2000, page size: 100000
  master list distance cutoff = 8.3
  ghost atom cutoff = 8.3
  binsize = 4.15, bins = 29 17 27
  1 neighbor lists, perpetual/occasional/extra = 1 0 0
  (1) pair eam/fs, perpetual
      attributes: half, newton on
      pair build: half/bin/atomonly/newton
      stencil: half/bin/3d/newton
      bin: standard
Setting up sd style minimization ...
  Unit style    : metal
  Current step  : 0
Per MPI rank memory allocation (min/avg/max) = 4.557 | 4.557 | 4.558 Mbytes
Step Temp E_pair E_mol TotEng Press 
       0            0   -48722.719            0   -48722.719   -11682.674 
       1            0   -48722.719            0   -48722.719   -11682.674 
Loop time of 0.118585 on 40 procs for 1 steps with 32000 atoms

22.5% CPU use with 40 MPI tasks x no OpenMP threads

Minimization stats:
  Stopping criterion = linesearch alpha is zero
  Energy initial, next-to-last, final = 
          -48722.71883       -48722.71883       -48722.71883
  Force two-norm initial, final = 5.97203e-10 5.97203e-10
  Force max component initial, final = 3.36707e-12 3.36707e-12
  Final line search alpha, max atom move = 0.5 1.68353e-12
  Iterations, force evaluations = 1 2

MPI task timing breakdown:
Section |  min time  |  avg time  |  max time  |%varavg| %total
---------------------------------------------------------------
Pair    | 0.026641   | 0.032834   | 0.045182   |   2.6 | 27.69
Neigh   | 0          | 0          | 0          |   0.0 |  0.00
Comm    | 0.018767   | 0.02726    | 0.035896   |   2.8 | 22.99
Output  | 0          | 0          | 0          |   0.0 |  0.00
Modify  | 0          | 0          | 0          |   0.0 |  0.00
Other   |            | 0.05849    |            |       | 49.32

Nlocal:    800 ave 800 max 800 min
Histogram: 40 0 0 0 0 0 0 0 0 0
Nghost:    2539 ave 2539 max 2539 min
Histogram: 40 0 0 0 0 0 0 0 0 0
Neighs:    32000 ave 32066 max 31934 min
Histogram: 4 4 4 0 4 12 0 4 4 4

Total # of neighbors = 1280000
Ave neighs/atom = 40
Neighbor list builds = 0
Dangerous builds = 0
@@@@  (energy per atom): 3.3955 -1.52258496343678 27.5294709545535 -1.16826737003421 -1.72332303836491
Lattice spacing in x,y,z = 5.88031 3.395 5.51348
Created orthogonal box = (0 0 0) to (117.606 67.9 110.27)
  5 by 2 by 4 MPI processor grid
Created 32000 atoms
  create_atoms CPU = 0.0241668 secs
WARNING: Using 'neigh_modify every 1 delay 0 check yes' setting during minimization (../min.cpp:190)
Neighbor list info ...
  update every 1 steps, delay 0 steps, check yes
  max neighbors/atom: 2000, page size: 100000
  master list distance cutoff = 8.3
  ghost atom cutoff = 8.3
  binsize = 4.15, bins = 29 17 27
  1 neighbor lists, perpetual/occasional/extra = 1 0 0
  (1) pair eam/fs, perpetual
      attributes: half, newton on
      pair build: half/bin/atomonly/newton
      stencil: half/bin/3d/newton
      bin: standard
Setting up sd style minimization ...
  Unit style    : metal
  Current step  : 0
Per MPI rank memory allocation (min/avg/max) = 4.557 | 4.557 | 4.558 Mbytes
Step Temp E_pair E_mol TotEng Press 
       0            0   -48725.546            0   -48725.546   -11602.264 
       4            0   -48725.546            0   -48725.546   -11602.264 
Loop time of 0.273068 on 40 procs for 4 steps with 32000 atoms

22.5% CPU use with 40 MPI tasks x no OpenMP threads

Minimization stats:
  Stopping criterion = energy tolerance
  Energy initial, next-to-last, final = 
          -48725.54636       -48725.54636       -48725.54636
  Force two-norm initial, final = 5.70343e-10 3.80647e-12
  Force max component initial, final = 3.23175e-12 4.49762e-14
  Final line search alpha, max atom move = 1 4.49762e-14
  Iterations, force evaluations = 4 7

MPI task timing breakdown:
Section |  min time  |  avg time  |  max time  |%varavg| %total
---------------------------------------------------------------
Pair    | 0.05883    | 0.068377   | 0.0772     |   1.9 | 25.04
Neigh   | 0          | 0          | 0          |   0.0 |  0.00
Comm    | 0.041769   | 0.06427    | 0.090059   |   4.5 | 23.54
Output  | 0          | 0          | 0          |   0.0 |  0.00
Modify  | 0          | 0          | 0          |   0.0 |  0.00
Other   |            | 0.1404     |            |       | 51.42

Nlocal:    800 ave 850 max 750 min
Histogram: 16 0 0 0 0 8 0 0 0 16
Nghost:    2539 ave 2589 max 2489 min
Histogram: 16 0 0 0 0 8 0 0 0 16
Neighs:    32000 ave 34053 max 29953 min
Histogram: 16 0 0 0 8 0 0 0 0 16

Total # of neighbors = 1280000
Ave neighs/atom = 40
Neighbor list builds = 0
Dangerous builds = 0
@@@@  (energy per atom): 3.395 -1.52267332374872 27.5173112944137 -1.16022639748004 -1.72194169993233
Lattice spacing in x,y,z = 5.87945 3.3945 5.51267
Created orthogonal box = (0 0 0) to (117.589 67.89 110.253)
  5 by 2 by 4 MPI processor grid
Created 32000 atoms
  create_atoms CPU = 0.02981 secs
WARNING: Using 'neigh_modify every 1 delay 0 check yes' setting during minimization (../min.cpp:190)
Neighbor list info ...
  update every 1 steps, delay 0 steps, check yes
  max neighbors/atom: 2000, page size: 100000
  master list distance cutoff = 8.3
  ghost atom cutoff = 8.3
  binsize = 4.15, bins = 29 17 27
  1 neighbor lists, perpetual/occasional/extra = 1 0 0
  (1) pair eam/fs, perpetual
      attributes: half, newton on
      pair build: half/bin/atomonly/newton
      stencil: half/bin/3d/newton
      bin: standard
Setting up sd style minimization ...
  Unit style    : metal
  Current step  : 0
Per MPI rank memory allocation (min/avg/max) = 4.557 | 4.557 | 4.558 Mbytes
Step Temp E_pair E_mol TotEng Press 
       0            0   -48728.353            0   -48728.353   -11521.532 
       1            0   -48728.353            0   -48728.353   -11521.532 
Loop time of 0.0831302 on 40 procs for 1 steps with 32000 atoms

23.3% CPU use with 40 MPI tasks x no OpenMP threads

Minimization stats:
  Stopping criterion = linesearch alpha is zero
  Energy initial, next-to-last, final = 
        -48728.3534953     -48728.3534953     -48728.3534953
  Force two-norm initial, final = 5.43349e-10 5.43349e-10
  Force max component initial, final = 3.07229e-12 3.07229e-12
  Final line search alpha, max atom move = 0.5 1.53615e-12
  Iterations, force evaluations = 1 2

MPI task timing breakdown:
Section |  min time  |  avg time  |  max time  |%varavg| %total
---------------------------------------------------------------
Pair    | 0.01726    | 0.020672   | 0.028179   |   1.6 | 24.87
Neigh   | 0          | 0          | 0          |   0.0 |  0.00
Comm    | 0.010185   | 0.017667   | 0.024347   |   3.0 | 21.25
Output  | 0          | 0          | 0          |   0.0 |  0.00
Modify  | 0          | 0          | 0          |   0.0 |  0.00
Other   |            | 0.04479    |            |       | 53.88

Nlocal:    800 ave 850 max 750 min
Histogram: 16 0 0 0 0 8 0 0 0 16
Nghost:    2539 ave 2589 max 2489 min
Histogram: 16 0 0 0 0 8 0 0 0 16
Neighs:    32000 ave 34072 max 29944 min
Histogram: 16 0 0 0 8 0 0 0 0 16

Total # of neighbors = 1280000
Ave neighs/atom = 40
Neighbor list builds = 0
Dangerous builds = 0
@@@@  (energy per atom): 3.3945 -1.52276104672677 27.5051552153841 -1.1521531519596 -1.72055543003312
Lattice spacing in x,y,z = 5.87858 3.394 5.51186
Created orthogonal box = (0 0 0) to (117.572 67.88 110.237)
  5 by 2 by 4 MPI processor grid
Created 32000 atoms
  create_atoms CPU = 0.022707 secs
WARNING: Using 'neigh_modify every 1 delay 0 check yes' setting during minimization (../min.cpp:190)
Neighbor list info ...
  update every 1 steps, delay 0 steps, check yes
  max neighbors/atom: 2000, page size: 100000
  master list distance cutoff = 8.3
  ghost atom cutoff = 8.3
  binsize = 4.15, bins = 29 17 27
  1 neighbor lists, perpetual/occasional/extra = 1 0 0
  (1) pair eam/fs, perpetual
      attributes: half, newton on
      pair build: half/bin/atomonly/newton
      stencil: half/bin/3d/newton
      bin: standard
Setting up sd style minimization ...
  Unit style    : metal
  Current step  : 0
Per MPI rank memory allocation (min/avg/max) = 4.557 | 4.557 | 4.558 Mbytes
Step Temp E_pair E_mol TotEng Press 
       0            0    -48731.14            0    -48731.14   -11440.476 
       3            0    -48731.14            0    -48731.14   -11440.476 
Loop time of 0.199736 on 40 procs for 3 steps with 32000 atoms

23.2% CPU use with 40 MPI tasks x no OpenMP threads

Minimization stats:
  Stopping criterion = energy tolerance
  Energy initial, next-to-last, final = 
        -48731.1401691     -48731.1401692     -48731.1401692
  Force two-norm initial, final = 5.16256e-10 6.19795e-12
  Force max component initial, final = 2.91453e-12 7.22009e-14
  Final line search alpha, max atom move = 1 7.22009e-14
  Iterations, force evaluations = 3 5

MPI task timing breakdown:
Section |  min time  |  avg time  |  max time  |%varavg| %total
---------------------------------------------------------------
Pair    | 0.035974   | 0.048652   | 0.069905   |   3.5 | 24.36
Neigh   | 0          | 0          | 0          |   0.0 |  0.00
Comm    | 0.036156   | 0.05711    | 0.077559   |   3.6 | 28.59
Output  | 0          | 0          | 0          |   0.0 |  0.00
Modify  | 0          | 0          | 0          |   0.0 |  0.00
Other   |            | 0.09397    |            |       | 47.05

Nlocal:    800 ave 800 max 800 min
Histogram: 40 0 0 0 0 0 0 0 0 0
Nghost:    2539 ave 2539 max 2539 min
Histogram: 40 0 0 0 0 0 0 0 0 0
Neighs:    32000 ave 32066 max 31934 min
Histogram: 4 4 4 0 4 12 0 4 4 4

Total # of neighbors = 1280000
Ave neighs/atom = 40
Neighbor list builds = 0
Dangerous builds = 0
@@@@  (energy per atom): 3.394 -1.522848130286 27.4930027169375 -1.1440476014 -1.71916422787946
Lattice spacing in x,y,z = 5.87771 3.3935 5.51104
Created orthogonal box = (0 0 0) to (117.554 67.87 110.221)
  5 by 2 by 4 MPI processor grid
Created 32000 atoms
  create_atoms CPU = 0.020472 secs
WARNING: Using 'neigh_modify every 1 delay 0 check yes' setting during minimization (../min.cpp:190)
Neighbor list info ...
  update every 1 steps, delay 0 steps, check yes
  max neighbors/atom: 2000, page size: 100000
  master list distance cutoff = 8.3
  ghost atom cutoff = 8.3
  binsize = 4.15, bins = 29 17 27
  1 neighbor lists, perpetual/occasional/extra = 1 0 0
  (1) pair eam/fs, perpetual
      attributes: half, newton on
      pair build: half/bin/atomonly/newton
      stencil: half/bin/3d/newton
      bin: standard
Setting up sd style minimization ...
  Unit style    : metal
  Current step  : 0
Per MPI rank memory allocation (min/avg/max) = 4.557 | 4.557 | 4.558 Mbytes
Step Temp E_pair E_mol TotEng Press 
       0            0   -48733.906            0   -48733.906   -11359.097 
       1            0   -48733.906            0   -48733.906   -11359.097 
Loop time of 0.0990847 on 40 procs for 1 steps with 32000 atoms

23.0% CPU use with 40 MPI tasks x no OpenMP threads

Minimization stats:
  Stopping criterion = linesearch alpha is zero
  Energy initial, next-to-last, final = 
        -48733.9063149     -48733.9063149     -48733.9063149
  Force two-norm initial, final = 4.89301e-10 4.89301e-10
  Force max component initial, final = 2.77817e-12 2.77817e-12
  Final line search alpha, max atom move = 0.5 1.38908e-12
  Iterations, force evaluations = 1 2

MPI task timing breakdown:
Section |  min time  |  avg time  |  max time  |%varavg| %total
---------------------------------------------------------------
Pair    | 0.012014   | 0.024311   | 0.034023   |   3.4 | 24.54
Neigh   | 0          | 0          | 0          |   0.0 |  0.00
Comm    | 0.01438    | 0.02738    | 0.041956   |   4.1 | 27.63
Output  | 0          | 0          | 0          |   0.0 |  0.00
Modify  | 0          | 0          | 0          |   0.0 |  0.00
Other   |            | 0.04739    |            |       | 47.83

Nlocal:    800 ave 850 max 750 min
Histogram: 8 0 0 0 0 24 0 0 0 8
Nghost:    2539 ave 2589 max 2489 min
Histogram: 8 0 0 0 0 24 0 0 0 8
Neighs:    32000 ave 34072 max 29986 min
Histogram: 8 0 0 0 16 8 0 0 0 8

Total # of neighbors = 1280000
Ave neighs/atom = 40
Neighbor list builds = 0
Dangerous builds = 0
@@@@  (energy per atom): 3.3935 -1.52293457234045 27.4808537985463 -1.13590971394735 -1.7177680927256
Lattice spacing in x,y,z = 5.87685 3.393 5.51023
Created orthogonal box = (0 0 0) to (117.537 67.86 110.205)
  5 by 2 by 4 MPI processor grid
Created 32000 atoms
  create_atoms CPU = 0.00945282 secs
WARNING: Using 'neigh_modify every 1 delay 0 check yes' setting during minimization (../min.cpp:190)
Neighbor list info ...
  update every 1 steps, delay 0 steps, check yes
  max neighbors/atom: 2000, page size: 100000
  master list distance cutoff = 8.3
  ghost atom cutoff = 8.3
  binsize = 4.15, bins = 29 17 27
  1 neighbor lists, perpetual/occasional/extra = 1 0 0
  (1) pair eam/fs, perpetual
      attributes: half, newton on
      pair build: half/bin/atomonly/newton
      stencil: half/bin/3d/newton
      bin: standard
Setting up sd style minimization ...
  Unit style    : metal
  Current step  : 0
Per MPI rank memory allocation (min/avg/max) = 4.557 | 4.557 | 4.558 Mbytes
Step Temp E_pair E_mol TotEng Press 
       0            0   -48736.652            0   -48736.652   -11277.395 
       3            0   -48736.652            0   -48736.652   -11277.395 
Loop time of 0.144613 on 40 procs for 3 steps with 32000 atoms

22.8% CPU use with 40 MPI tasks x no OpenMP threads

Minimization stats:
  Stopping criterion = energy tolerance
  Energy initial, next-to-last, final = 
        -48736.6518657     -48736.6518658     -48736.6518658
  Force two-norm initial, final = 4.62332e-10 3.30709e-12
  Force max component initial, final = 2.62444e-12 4.39926e-14
  Final line search alpha, max atom move = 1 4.39926e-14
  Iterations, force evaluations = 3 5

MPI task timing breakdown:
Section |  min time  |  avg time  |  max time  |%varavg| %total
---------------------------------------------------------------
Pair    | 0.04977    | 0.063623   | 0.07591    |   2.4 | 43.99
Neigh   | 0          | 0          | 0          |   0.0 |  0.00
Comm    | 0.025331   | 0.039088   | 0.054215   |   3.8 | 27.03
Output  | 0          | 0          | 0          |   0.0 |  0.00
Modify  | 0          | 0          | 0          |   0.0 |  0.00
Other   |            | 0.0419     |            |       | 28.98

Nlocal:    800 ave 850 max 750 min
Histogram: 16 0 0 0 0 8 0 0 0 16
Nghost:    2539 ave 2589 max 2489 min
Histogram: 16 0 0 0 0 8 0 0 0 16
Neighs:    32000 ave 34072 max 29944 min
Histogram: 16 0 0 0 8 0 0 0 0 16

Total # of neighbors = 1280000
Ave neighs/atom = 40
Neighbor list builds = 0
Dangerous builds = 0
@@@@  (energy per atom): 3.393 -1.52302037080485 27.4687084596832 -1.12773945752896 -1.71636702379436
Lattice spacing in x,y,z = 5.87598 3.3925 5.50942
Created orthogonal box = (0 0 0) to (117.52 67.85 110.188)
  5 by 2 by 4 MPI processor grid
Created 32000 atoms
  create_atoms CPU = 0.0223532 secs
WARNING: Using 'neigh_modify every 1 delay 0 check yes' setting during minimization (../min.cpp:190)
Neighbor list info ...
  update every 1 steps, delay 0 steps, check yes
  max neighbors/atom: 2000, page size: 100000
  master list distance cutoff = 8.3
  ghost atom cutoff = 8.3
  binsize = 4.15, bins = 29 17 27
  1 neighbor lists, perpetual/occasional/extra = 1 0 0
  (1) pair eam/fs, perpetual
      attributes: half, newton on
      pair build: half/bin/atomonly/newton
      stencil: half/bin/3d/newton
      bin: standard
Setting up sd style minimization ...
  Unit style    : metal
  Current step  : 0
Per MPI rank memory allocation (min/avg/max) = 4.557 | 4.557 | 4.558 Mbytes
Step Temp E_pair E_mol TotEng Press 
       0            0   -48739.377            0   -48739.377   -11195.368 
       1            0   -48739.377            0   -48739.377   -11195.368 
Loop time of 0.0966794 on 40 procs for 1 steps with 32000 atoms

22.1% CPU use with 40 MPI tasks x no OpenMP threads

Minimization stats:
  Stopping criterion = linesearch alpha is zero
  Energy initial, next-to-last, final = 
         -48739.376755      -48739.376755      -48739.376755
  Force two-norm initial, final = 4.35211e-10 4.35211e-10
  Force max component initial, final = 2.46308e-12 2.46308e-12
  Final line search alpha, max atom move = 0.5 1.23154e-12
  Iterations, force evaluations = 1 2

MPI task timing breakdown:
Section |  min time  |  avg time  |  max time  |%varavg| %total
---------------------------------------------------------------
Pair    | 0.017904   | 0.030345   | 0.03922    |   2.6 | 31.39
Neigh   | 0          | 0          | 0          |   0.0 |  0.00
Comm    | 0.0088398  | 0.021361   | 0.035035   |   3.7 | 22.09
Output  | 0          | 0          | 0          |   0.0 |  0.00
Modify  | 0          | 0          | 0          |   0.0 |  0.00
Other   |            | 0.04497    |            |       | 46.52

Nlocal:    800 ave 800 max 800 min
Histogram: 40 0 0 0 0 0 0 0 0 0
Nghost:    2539 ave 2539 max 2539 min
Histogram: 40 0 0 0 0 0 0 0 0 0
Neighs:    32000 ave 32066 max 31934 min
Histogram: 4 4 4 0 4 12 0 4 4 4

Total # of neighbors = 1280000
Ave neighs/atom = 40
Neighbor list builds = 0
Dangerous builds = 0
@@@@  (energy per atom): 3.3925 -1.52310552359294 27.4565666998208 -1.11953680032612 -1.71496102035661
Lattice spacing in x,y,z = 5.87512 3.392 5.50861
Created orthogonal box = (0 0 0) to (117.502 67.84 110.172)
  5 by 2 by 4 MPI processor grid
Created 32000 atoms
  create_atoms CPU = 0.0472269 secs
WARNING: Using 'neigh_modify every 1 delay 0 check yes' setting during minimization (../min.cpp:190)
Neighbor list info ...
  update every 1 steps, delay 0 steps, check yes
  max neighbors/atom: 2000, page size: 100000
  master list distance cutoff = 8.3
  ghost atom cutoff = 8.3
  binsize = 4.15, bins = 29 17 27
  1 neighbor lists, perpetual/occasional/extra = 1 0 0
  (1) pair eam/fs, perpetual
      attributes: half, newton on
      pair build: half/bin/atomonly/newton
      stencil: half/bin/3d/newton
      bin: standard
Setting up sd style minimization ...
  Unit style    : metal
  Current step  : 0
Per MPI rank memory allocation (min/avg/max) = 4.531 | 4.545 | 4.558 Mbytes
Step Temp E_pair E_mol TotEng Press 
       0            0   -48742.081            0   -48742.081   -11113.017 
       1            0   -48742.081            0   -48742.081   -11113.017 
Loop time of 0.0936021 on 40 procs for 1 steps with 32000 atoms

22.0% CPU use with 40 MPI tasks x no OpenMP threads

Minimization stats:
  Stopping criterion = linesearch alpha is zero
  Energy initial, next-to-last, final = 
        -48742.0809158     -48742.0809158     -48742.0809158
  Force two-norm initial, final = 4.08194e-10 4.08194e-10
  Force max component initial, final = 2.31339e-12 2.31339e-12
  Final line search alpha, max atom move = 0.5 1.1567e-12
  Iterations, force evaluations = 1 2

MPI task timing breakdown:
Section |  min time  |  avg time  |  max time  |%varavg| %total
---------------------------------------------------------------
Pair    | 0.013486   | 0.021503   | 0.031631   |   2.9 | 22.97
Neigh   | 0          | 0          | 0          |   0.0 |  0.00
Comm    | 0.0096979  | 0.018916   | 0.027971   |   3.8 | 20.21
Output  | 0          | 0          | 0          |   0.0 |  0.00
Modify  | 0          | 0          | 0          |   0.0 |  0.00
Other   |            | 0.05318    |            |       | 56.82

Nlocal:    800 ave 880 max 720 min
Histogram: 10 0 0 0 0 20 0 0 0 10
Nghost:    2539 ave 2619 max 2459 min
Histogram: 10 0 0 0 0 20 0 0 0 10
Neighs:    32000 ave 35271 max 28748 min
Histogram: 10 0 0 0 12 8 0 0 0 10

Total # of neighbors = 1280000
Ave neighs/atom = 40
Neighbor list builds = 0
Dangerous builds = 0
@@@@  (energy per atom): 3.392 -1.52319002861798 27.4444285184317 -1.11130170990986 -1.71355008158363
Lattice spacing in x,y,z = 5.87425 3.3915 5.5078
Created orthogonal box = (0 0 0) to (117.485 67.83 110.156)
  5 by 2 by 4 MPI processor grid
Created 32000 atoms
  create_atoms CPU = 0.0139029 secs
WARNING: Using 'neigh_modify every 1 delay 0 check yes' setting during minimization (../min.cpp:190)
Neighbor list info ...
  update every 1 steps, delay 0 steps, check yes
  max neighbors/atom: 2000, page size: 100000
  master list distance cutoff = 8.3
  ghost atom cutoff = 8.3
  binsize = 4.15, bins = 29 17 27
  1 neighbor lists, perpetual/occasional/extra = 1 0 0
  (1) pair eam/fs, perpetual
      attributes: half, newton on
      pair build: half/bin/atomonly/newton
      stencil: half/bin/3d/newton
      bin: standard
Setting up sd style minimization ...
  Unit style    : metal
  Current step  : 0
Per MPI rank memory allocation (min/avg/max) = 4.557 | 4.557 | 4.558 Mbytes
Step Temp E_pair E_mol TotEng Press 
       0            0   -48744.764            0   -48744.764   -11030.342 
       1            0   -48744.764            0   -48744.764   -11030.342 
Loop time of 0.111748 on 40 procs for 1 steps with 32000 atoms

23.7% CPU use with 40 MPI tasks x no OpenMP threads

Minimization stats:
  Stopping criterion = linesearch alpha is zero
  Energy initial, next-to-last, final = 
        -48744.7642814     -48744.7642814     -48744.7642814
  Force two-norm initial, final = 3.81089e-10 3.81089e-10
  Force max component initial, final = 2.16879e-12 2.16879e-12
  Final line search alpha, max atom move = 0.5 1.08439e-12
  Iterations, force evaluations = 1 2

MPI task timing breakdown:
Section |  min time  |  avg time  |  max time  |%varavg| %total
---------------------------------------------------------------
Pair    | 0.02339    | 0.031218   | 0.036817   |   2.6 | 27.94
Neigh   | 0          | 0          | 0          |   0.0 |  0.00
Comm    | 0.014358   | 0.021622   | 0.030483   |   3.3 | 19.35
Output  | 0          | 0          | 0          |   0.0 |  0.00
Modify  | 0          | 0          | 0          |   0.0 |  0.00
Other   |            | 0.05891    |            |       | 52.72

Nlocal:    800 ave 800 max 800 min
Histogram: 40 0 0 0 0 0 0 0 0 0
Nghost:    2539 ave 2539 max 2539 min
Histogram: 40 0 0 0 0 0 0 0 0 0
Neighs:    32000 ave 32066 max 31934 min
Histogram: 4 4 4 0 4 12 0 4 4 4

Total # of neighbors = 1280000
Ave neighs/atom = 40
Neighbor list builds = 0
Dangerous builds = 0
@@@@  (energy per atom): 3.3915 -1.5232738837931 27.4322939149884 -1.10303415372212 -1.71213420663004
Lattice spacing in x,y,z = 5.87338 3.391 5.50698
Created orthogonal box = (0 0 0) to (117.468 67.82 110.14)
  5 by 2 by 4 MPI processor grid
Created 32000 atoms
  create_atoms CPU = 0.0505471 secs
WARNING: Using 'neigh_modify every 1 delay 0 check yes' setting during minimization (../min.cpp:190)
Neighbor list info ...
  update every 1 steps, delay 0 steps, check yes
  max neighbors/atom: 2000, page size: 100000
  master list distance cutoff = 8.3
  ghost atom cutoff = 8.3
  binsize = 4.15, bins = 29 17 27
  1 neighbor lists, perpetual/occasional/extra = 1 0 0
  (1) pair eam/fs, perpetual
      attributes: half, newton on
      pair build: half/bin/atomonly/newton
      stencil: half/bin/3d/newton
      bin: standard
Setting up sd style minimization ...
  Unit style    : metal
  Current step  : 0
Per MPI rank memory allocation (min/avg/max) = 4.557 | 4.557 | 4.558 Mbytes
Step Temp E_pair E_mol TotEng Press 
       0            0   -48747.427            0   -48747.427   -10947.341 
       4            0   -48747.427            0   -48747.427   -10947.341 
Loop time of 0.274502 on 40 procs for 4 steps with 32000 atoms

22.2% CPU use with 40 MPI tasks x no OpenMP threads

Minimization stats:
  Stopping criterion = energy tolerance
  Energy initial, next-to-last, final = 
         -48747.426785      -48747.426785      -48747.426785
  Force two-norm initial, final = 3.54025e-10 2.33062e-12
  Force max component initial, final = 2.01994e-12 2.78111e-14
  Final line search alpha, max atom move = 1 2.78111e-14
  Iterations, force evaluations = 4 7

MPI task timing breakdown:
Section |  min time  |  avg time  |  max time  |%varavg| %total
---------------------------------------------------------------
Pair    | 0.056685   | 0.073845   | 0.096299   |   3.5 | 26.90
Neigh   | 0          | 0          | 0          |   0.0 |  0.00
Comm    | 0.048789   | 0.069333   | 0.091052   |   4.1 | 25.26
Output  | 0          | 0          | 0          |   0.0 |  0.00
Modify  | 0          | 0          | 0          |   0.0 |  0.00
Other   |            | 0.1313     |            |       | 47.84

Nlocal:    800 ave 850 max 750 min
Histogram: 16 0 0 0 0 8 0 0 0 16
Nghost:    2539 ave 2589 max 2489 min
Histogram: 16 0 0 0 0 8 0 0 0 16
Neighs:    32000 ave 34072 max 29944 min
Histogram: 16 0 0 0 8 0 0 0 0 16

Total # of neighbors = 1280000
Ave neighs/atom = 40
Neighbor list builds = 0
Dangerous builds = 0
@@@@  (energy per atom): 3.391 -1.52335708703108 27.4201628889635 -1.09473410009625 -1.71071339480829
Lattice spacing in x,y,z = 5.87252 3.3905 5.50617
Created orthogonal box = (0 0 0) to (117.45 67.81 110.123)
  5 by 2 by 4 MPI processor grid
Created 32000 atoms
  create_atoms CPU = 0.023329 secs
WARNING: Using 'neigh_modify every 1 delay 0 check yes' setting during minimization (../min.cpp:190)
Neighbor list info ...
  update every 1 steps, delay 0 steps, check yes
  max neighbors/atom: 2000, page size: 100000
  master list distance cutoff = 8.3
  ghost atom cutoff = 8.3
  binsize = 4.15, bins = 29 17 27
  1 neighbor lists, perpetual/occasional/extra = 1 0 0
  (1) pair eam/fs, perpetual
      attributes: half, newton on
      pair build: half/bin/atomonly/newton
      stencil: half/bin/3d/newton
      bin: standard
Setting up sd style minimization ...
  Unit style    : metal
  Current step  : 0
Per MPI rank memory allocation (min/avg/max) = 4.557 | 4.557 | 4.558 Mbytes
Step Temp E_pair E_mol TotEng Press 
       0            0   -48750.068            0   -48750.068   -10864.015 
       3            0   -48750.068            0   -48750.068   -10864.015 
Loop time of 0.225201 on 40 procs for 3 steps with 32000 atoms

22.1% CPU use with 40 MPI tasks x no OpenMP threads

Minimization stats:
  Stopping criterion = energy tolerance
  Energy initial, next-to-last, final = 
        -48750.0683598     -48750.0683598     -48750.0683598
  Force two-norm initial, final = 3.26907e-10 2.15784e-12
  Force max component initial, final = 1.85819e-12 2.46955e-14
  Final line search alpha, max atom move = 1 2.46955e-14
  Iterations, force evaluations = 3 5

MPI task timing breakdown:
Section |  min time  |  avg time  |  max time  |%varavg| %total
---------------------------------------------------------------
Pair    | 0.045884   | 0.060974   | 0.076816   |   3.5 | 27.08
Neigh   | 0          | 0          | 0          |   0.0 |  0.00
Comm    | 0.027088   | 0.053749   | 0.074636   |   4.3 | 23.87
Output  | 0          | 0          | 0          |   0.0 |  0.00
Modify  | 0          | 0          | 0          |   0.0 |  0.00
Other   |            | 0.1105     |            |       | 49.06

Nlocal:    800 ave 800 max 800 min
Histogram: 40 0 0 0 0 0 0 0 0 0
Nghost:    2539 ave 2539 max 2539 min
Histogram: 40 0 0 0 0 0 0 0 0 0
Neighs:    34400 ave 34471 max 34329 min
Histogram: 4 2 6 0 4 12 0 6 2 4

Total # of neighbors = 1376000
Ave neighs/atom = 43
Neighbor list builds = 0
Dangerous builds = 0
@@@@  (energy per atom): 3.3905 -1.52343963624489 27.4080354398297 -1.08640151679552 -1.70928764533887
Lattice spacing in x,y,z = 5.87165 3.39 5.50536
Created orthogonal box = (0 0 0) to (117.433 67.8 110.107)
  5 by 2 by 4 MPI processor grid
Created 32000 atoms
  create_atoms CPU = 0.019809 secs
WARNING: Using 'neigh_modify every 1 delay 0 check yes' setting during minimization (../min.cpp:190)
Neighbor list info ...
  update every 1 steps, delay 0 steps, check yes
  max neighbors/atom: 2000, page size: 100000
  master list distance cutoff = 8.3
  ghost atom cutoff = 8.3
  binsize = 4.15, bins = 29 17 27
  1 neighbor lists, perpetual/occasional/extra = 1 0 0
  (1) pair eam/fs, perpetual
      attributes: half, newton on
      pair build: half/bin/atomonly/newton
      stencil: half/bin/3d/newton
      bin: standard
Setting up sd style minimization ...
  Unit style    : metal
  Current step  : 0
Per MPI rank memory allocation (min/avg/max) = 4.557 | 4.557 | 4.558 Mbytes
Step Temp E_pair E_mol TotEng Press 
       0            0   -48752.689            0   -48752.689   -10780.364 
       3            0   -48752.689            0   -48752.689   -10780.364 
Loop time of 0.241051 on 40 procs for 3 steps with 32000 atoms

22.4% CPU use with 40 MPI tasks x no OpenMP threads

Minimization stats:
  Stopping criterion = energy tolerance
  Energy initial, next-to-last, final = 
        -48752.6889391     -48752.6889391     -48752.6889391
  Force two-norm initial, final = 2.9983e-10 1.96291e-12
  Force max component initial, final = 1.69787e-12 2.38524e-14
  Final line search alpha, max atom move = 1 2.38524e-14
  Iterations, force evaluations = 3 6

MPI task timing breakdown:
Section |  min time  |  avg time  |  max time  |%varavg| %total
---------------------------------------------------------------
Pair    | 0.04706    | 0.068833   | 0.087326   |   3.6 | 28.56
Neigh   | 0          | 0          | 0          |   0.0 |  0.00
Comm    | 0.046645   | 0.066165   | 0.095091   |   4.4 | 27.45
Output  | 0          | 0          | 0          |   0.0 |  0.00
Modify  | 0          | 0          | 0          |   0.0 |  0.00
Other   |            | 0.1061     |            |       | 44.00

Nlocal:    800 ave 800 max 800 min
Histogram: 40 0 0 0 0 0 0 0 0 0
Nghost:    2539 ave 2539 max 2539 min
Histogram: 40 0 0 0 0 0 0 0 0 0
Neighs:    34400 ave 34603 max 34189 min
Histogram: 4 6 6 4 0 0 0 10 6 4

Total # of neighbors = 1376000
Ave neighs/atom = 43
Neighbor list builds = 0
Dangerous builds = 0
@@@@  (energy per atom): 3.39 -1.52352152934571 27.3959115670595 -1.07803637148802 -1.7078569574297
Lattice spacing in x,y,z = 5.87079 3.3895 5.50455
Created orthogonal box = (0 0 0) to (117.416 67.79 110.091)
  5 by 2 by 4 MPI processor grid
Created 32000 atoms
  create_atoms CPU = 0.014647 secs
WARNING: Using 'neigh_modify every 1 delay 0 check yes' setting during minimization (../min.cpp:190)
Neighbor list info ...
  update every 1 steps, delay 0 steps, check yes
  max neighbors/atom: 2000, page size: 100000
  master list distance cutoff = 8.3
  ghost atom cutoff = 8.3
  binsize = 4.15, bins = 29 17 27
  1 neighbor lists, perpetual/occasional/extra = 1 0 0
  (1) pair eam/fs, perpetual
      attributes: half, newton on
      pair build: half/bin/atomonly/newton
      stencil: half/bin/3d/newton
      bin: standard
Setting up sd style minimization ...
  Unit style    : metal
  Current step  : 0
Per MPI rank memory allocation (min/avg/max) = 4.557 | 4.557 | 4.558 Mbytes
Step Temp E_pair E_mol TotEng Press 
       0            0   -48755.288            0   -48755.288   -10696.386 
       5            0   -48755.288            0   -48755.288   -10696.386 
Loop time of 0.34359 on 40 procs for 5 steps with 32000 atoms

22.4% CPU use with 40 MPI tasks x no OpenMP threads

Minimization stats:
  Stopping criterion = energy tolerance
  Energy initial, next-to-last, final = 
        -48755.2884559     -48755.2884559     -48755.2884559
  Force two-norm initial, final = 2.7274e-10 1.2044e-12
  Force max component initial, final = 1.57058e-12 2.99413e-14
  Final line search alpha, max atom move = 1 2.99413e-14
  Iterations, force evaluations = 5 10

MPI task timing breakdown:
Section |  min time  |  avg time  |  max time  |%varavg| %total
---------------------------------------------------------------
Pair    | 0.083236   | 0.1003     | 0.12544    |   3.2 | 29.19
Neigh   | 0          | 0          | 0          |   0.0 |  0.00
Comm    | 0.058035   | 0.085015   | 0.10483    |   3.1 | 24.74
Output  | 0          | 0          | 0          |   0.0 |  0.00
Modify  | 0          | 0          | 0          |   0.0 |  0.00
Other   |            | 0.1583     |            |       | 46.07

Nlocal:    800 ave 850 max 750 min
Histogram: 8 0 0 0 0 24 0 0 0 8
Nghost:    2539 ave 2589 max 2489 min
Histogram: 8 0 0 0 0 24 0 0 0 8
Neighs:    34400 ave 37308 max 31444 min
Histogram: 2 4 2 6 8 4 6 2 4 2

Total # of neighbors = 1376000
Ave neighs/atom = 43
Neighbor list builds = 0
Dangerous builds = 0
@@@@  (energy per atom): 3.3895 -1.52360276424569 27.3837912701255 -1.06963863182002 -1.70642133029146
Lattice spacing in x,y,z = 5.86992 3.389 5.50374
Created orthogonal box = (0 0 0) to (117.398 67.78 110.075)
  5 by 2 by 4 MPI processor grid
Created 32000 atoms
  create_atoms CPU = 0.0146451 secs
WARNING: Using 'neigh_modify every 1 delay 0 check yes' setting during minimization (../min.cpp:190)
Neighbor list info ...
  update every 1 steps, delay 0 steps, check yes
  max neighbors/atom: 2000, page size: 100000
  master list distance cutoff = 8.3
  ghost atom cutoff = 8.3
  binsize = 4.15, bins = 29 17 27
  1 neighbor lists, perpetual/occasional/extra = 1 0 0
  (1) pair eam/fs, perpetual
      attributes: half, newton on
      pair build: half/bin/atomonly/newton
      stencil: half/bin/3d/newton
      bin: standard
Setting up sd style minimization ...
  Unit style    : metal
  Current step  : 0
Per MPI rank memory allocation (min/avg/max) = 4.557 | 4.557 | 4.558 Mbytes
Step Temp E_pair E_mol TotEng Press 
       0            0   -48757.867            0   -48757.867   -10612.083 
       2            0   -48757.867            0   -48757.867   -10612.083 
Loop time of 0.149484 on 40 procs for 2 steps with 32000 atoms

22.5% CPU use with 40 MPI tasks x no OpenMP threads

Minimization stats:
  Stopping criterion = energy tolerance
  Energy initial, next-to-last, final = 
        -48757.8668434     -48757.8668434     -48757.8668434
  Force two-norm initial, final = 2.45535e-10 2.29979e-12
  Force max component initial, final = 1.40758e-12 3.12545e-14
  Final line search alpha, max atom move = 1 3.12545e-14
  Iterations, force evaluations = 2 4

MPI task timing breakdown:
Section |  min time  |  avg time  |  max time  |%varavg| %total
---------------------------------------------------------------
Pair    | 0.035121   | 0.041607   | 0.050977   |   2.0 | 27.83
Neigh   | 0          | 0          | 0          |   0.0 |  0.00
Comm    | 0.022835   | 0.035027   | 0.049262   |   3.5 | 23.43
Output  | 0          | 0          | 0          |   0.0 |  0.00
Modify  | 0          | 0          | 0          |   0.0 |  0.00
Other   |            | 0.07285    |            |       | 48.73

Nlocal:    800 ave 850 max 750 min
Histogram: 16 0 0 0 0 8 0 0 0 16
Nghost:    2539 ave 2589 max 2489 min
Histogram: 16 0 0 0 0 8 0 0 0 16
Neighs:    34400 ave 36633 max 32173 min
Histogram: 16 0 0 0 8 0 0 0 0 16

Total # of neighbors = 1376000
Ave neighs/atom = 43
Neighbor list builds = 0
Dangerous builds = 0
@@@@  (energy per atom): 3.389 -1.52368333885677 27.3716745485004 -1.06120826532319 -1.70498076312061
Lattice spacing in x,y,z = 5.86905 3.3885 5.50292
Created orthogonal box = (0 0 0) to (117.381 67.77 110.058)
  5 by 2 by 4 MPI processor grid
Created 32000 atoms
  create_atoms CPU = 0.0329051 secs
WARNING: Using 'neigh_modify every 1 delay 0 check yes' setting during minimization (../min.cpp:190)
Neighbor list info ...
  update every 1 steps, delay 0 steps, check yes
  max neighbors/atom: 2000, page size: 100000
  master list distance cutoff = 8.3
  ghost atom cutoff = 8.3
  binsize = 4.15, bins = 29 17 27
  1 neighbor lists, perpetual/occasional/extra = 1 0 0
  (1) pair eam/fs, perpetual
      attributes: half, newton on
      pair build: half/bin/atomonly/newton
      stencil: half/bin/3d/newton
      bin: standard
Setting up sd style minimization ...
  Unit style    : metal
  Current step  : 0
Per MPI rank memory allocation (min/avg/max) = 4.557 | 4.557 | 4.558 Mbytes
Step Temp E_pair E_mol TotEng Press 
       0            0   -48760.424            0   -48760.424   -10527.452 
       2            0   -48760.424            0   -48760.424   -10527.452 
Loop time of 0.17449 on 40 procs for 2 steps with 32000 atoms

22.9% CPU use with 40 MPI tasks x no OpenMP threads

Minimization stats:
  Stopping criterion = energy tolerance
  Energy initial, next-to-last, final = 
        -48760.4240349     -48760.4240349     -48760.4240349
  Force two-norm initial, final = 2.18332e-10 2.33356e-12
  Force max component initial, final = 1.24704e-12 2.53096e-14
  Final line search alpha, max atom move = 1 2.53096e-14
  Iterations, force evaluations = 2 4

MPI task timing breakdown:
Section |  min time  |  avg time  |  max time  |%varavg| %total
---------------------------------------------------------------
Pair    | 0.027402   | 0.037579   | 0.046708   |   2.6 | 21.54
Neigh   | 0          | 0          | 0          |   0.0 |  0.00
Comm    | 0.030932   | 0.044544   | 0.060665   |   3.8 | 25.53
Output  | 0          | 0          | 0          |   0.0 |  0.00
Modify  | 0          | 0          | 0          |   0.0 |  0.00
Other   |            | 0.09237    |            |       | 52.94

Nlocal:    800 ave 800 max 800 min
Histogram: 40 0 0 0 0 0 0 0 0 0
Nghost:    2539 ave 2539 max 2539 min
Histogram: 40 0 0 0 0 0 0 0 0 0
Neighs:    34400 ave 34466 max 34334 min
Histogram: 4 4 4 0 4 12 0 4 4 4

Total # of neighbors = 1376000
Ave neighs/atom = 43
Neighbor list builds = 0
Dangerous builds = 0
@@@@  (energy per atom): 3.3885 -1.52376325108935 27.3595614016566 -1.052745239651 -1.70353525513842
Lattice spacing in x,y,z = 5.86819 3.388 5.50211
Created orthogonal box = (0 0 0) to (117.364 67.76 110.042)
  5 by 2 by 4 MPI processor grid
Created 32000 atoms
  create_atoms CPU = 0.040746 secs
WARNING: Using 'neigh_modify every 1 delay 0 check yes' setting during minimization (../min.cpp:190)
Neighbor list info ...
  update every 1 steps, delay 0 steps, check yes
  max neighbors/atom: 2000, page size: 100000
  master list distance cutoff = 8.3
  ghost atom cutoff = 8.3
  binsize = 4.15, bins = 29 17 27
  1 neighbor lists, perpetual/occasional/extra = 1 0 0
  (1) pair eam/fs, perpetual
      attributes: half, newton on
      pair build: half/bin/atomonly/newton
      stencil: half/bin/3d/newton
      bin: standard
Setting up sd style minimization ...
  Unit style    : metal
  Current step  : 0
Per MPI rank memory allocation (min/avg/max) = 4.557 | 4.557 | 4.558 Mbytes
Step Temp E_pair E_mol TotEng Press 
       0            0    -48762.96            0    -48762.96   -10442.495 
       3            0    -48762.96            0    -48762.96   -10442.495 
Loop time of 0.226199 on 40 procs for 3 steps with 32000 atoms

22.9% CPU use with 40 MPI tasks x no OpenMP threads

Minimization stats:
  Stopping criterion = energy tolerance
  Energy initial, next-to-last, final = 
        -48762.9599633     -48762.9599634     -48762.9599634
  Force two-norm initial, final = 1.91243e-10 2.46474e-12
  Force max component initial, final = 1.10346e-12 2.88779e-14
  Final line search alpha, max atom move = 1 2.88779e-14
  Iterations, force evaluations = 3 6

MPI task timing breakdown:
Section |  min time  |  avg time  |  max time  |%varavg| %total
---------------------------------------------------------------
Pair    | 0.052648   | 0.067968   | 0.077796   |   2.2 | 30.05
Neigh   | 0          | 0          | 0          |   0.0 |  0.00
Comm    | 0.038693   | 0.061451   | 0.088195   |   4.3 | 27.17
Output  | 0          | 0          | 0          |   0.0 |  0.00
Modify  | 0          | 0          | 0          |   0.0 |  0.00
Other   |            | 0.09678    |            |       | 42.79

Nlocal:    800 ave 800 max 800 min
Histogram: 40 0 0 0 0 0 0 0 0 0
Nghost:    2539 ave 2539 max 2539 min
Histogram: 40 0 0 0 0 0 0 0 0 0
Neighs:    34400 ave 34466 max 34334 min
Histogram: 4 4 4 0 4 12 0 4 4 4

Total # of neighbors = 1376000
Ave neighs/atom = 43
Neighbor list builds = 0
Dangerous builds = 0
@@@@  (energy per atom): 3.388 -1.5238424988547 27.3474518290668 -1.04424952284588 -1.70208480563896
Lattice spacing in x,y,z = 5.86732 3.3875 5.5013
Created orthogonal box = (0 0 0) to (117.346 67.75 110.026)
  5 by 2 by 4 MPI processor grid
Created 32000 atoms
  create_atoms CPU = 0.0072 secs
WARNING: Using 'neigh_modify every 1 delay 0 check yes' setting during minimization (../min.cpp:190)
Neighbor list info ...
  update every 1 steps, delay 0 steps, check yes
  max neighbors/atom: 2000, page size: 100000
  master list distance cutoff = 8.3
  ghost atom cutoff = 8.3
  binsize = 4.15, bins = 29 17 27
  1 neighbor lists, perpetual/occasional/extra = 1 0 0
  (1) pair eam/fs, perpetual
      attributes: half, newton on
      pair build: half/bin/atomonly/newton
      stencil: half/bin/3d/newton
      bin: standard
Setting up sd style minimization ...
  Unit style    : metal
  Current step  : 0
Per MPI rank memory allocation (min/avg/max) = 4.557 | 4.557 | 4.558 Mbytes
Step Temp E_pair E_mol TotEng Press 
       0            0   -48765.475            0   -48765.475   -10357.211 
       3            0   -48765.475            0   -48765.475   -10357.211 
Loop time of 0.279704 on 40 procs for 3 steps with 32000 atoms

22.8% CPU use with 40 MPI tasks x no OpenMP threads

Minimization stats:
  Stopping criterion = energy tolerance
  Energy initial, next-to-last, final = 
         -48765.474562      -48765.474562      -48765.474562
  Force two-norm initial, final = 1.64141e-10 2.36e-12
  Force max component initial, final = 9.62324e-13 2.82829e-14
  Final line search alpha, max atom move = 1 2.82829e-14
  Iterations, force evaluations = 3 6

MPI task timing breakdown:
Section |  min time  |  avg time  |  max time  |%varavg| %total
---------------------------------------------------------------
Pair    | 0.05617    | 0.073167   | 0.087752   |   2.7 | 26.16
Neigh   | 0          | 0          | 0          |   0.0 |  0.00
Comm    | 0.06508    | 0.081498   | 0.10022    |   3.2 | 29.14
Output  | 0          | 0          | 0          |   0.0 |  0.00
Modify  | 0          | 0          | 0          |   0.0 |  0.00
Other   |            | 0.125      |            |       | 44.70

Nlocal:    800 ave 850 max 750 min
Histogram: 16 0 0 0 0 8 0 0 0 16
Nghost:    2539 ave 2589 max 2489 min
Histogram: 16 0 0 0 0 8 0 0 0 16
Neighs:    34400 ave 36652 max 32164 min
Histogram: 16 0 0 0 8 0 0 0 0 16

Total # of neighbors = 1376000
Ave neighs/atom = 43
Neighbor list builds = 0
Dangerous builds = 0
@@@@  (energy per atom): 3.3875 -1.52392108006247 27.3353458302036 -1.03572108230067 -1.70062941380923
Lattice spacing in x,y,z = 5.86646 3.387 5.50049
Created orthogonal box = (0 0 0) to (117.329 67.74 110.01)
  5 by 2 by 4 MPI processor grid
Created 32000 atoms
  create_atoms CPU = 0.00968599 secs
WARNING: Using 'neigh_modify every 1 delay 0 check yes' setting during minimization (../min.cpp:190)
Neighbor list info ...
  update every 1 steps, delay 0 steps, check yes
  max neighbors/atom: 2000, page size: 100000
  master list distance cutoff = 8.3
  ghost atom cutoff = 8.3
  binsize = 4.15, bins = 29 17 27
  1 neighbor lists, perpetual/occasional/extra = 1 0 0
  (1) pair eam/fs, perpetual
      attributes: half, newton on
      pair build: half/bin/atomonly/newton
      stencil: half/bin/3d/newton
      bin: standard
Setting up sd style minimization ...
  Unit style    : metal
  Current step  : 0
Per MPI rank memory allocation (min/avg/max) = 4.557 | 4.557 | 4.558 Mbytes
Step Temp E_pair E_mol TotEng Press 
       0            0   -48767.968            0   -48767.968   -10271.599 
       2            0   -48767.968            0   -48767.968   -10271.599 
Loop time of 0.141564 on 40 procs for 2 steps with 32000 atoms

22.7% CPU use with 40 MPI tasks x no OpenMP threads

Minimization stats:
  Stopping criterion = energy tolerance
  Energy initial, next-to-last, final = 
        -48767.9677639     -48767.9677639     -48767.9677639
  Force two-norm initial, final = 1.36943e-10 2.47032e-12
  Force max component initial, final = 7.89247e-13 3.04964e-14
  Final line search alpha, max atom move = 1 3.04964e-14
  Iterations, force evaluations = 2 4

MPI task timing breakdown:
Section |  min time  |  avg time  |  max time  |%varavg| %total
---------------------------------------------------------------
Pair    | 0.018482   | 0.023156   | 0.039564   |   3.0 | 16.36
Neigh   | 0          | 0          | 0          |   0.0 |  0.00
Comm    | 0.018396   | 0.032434   | 0.050671   |   5.1 | 22.91
Output  | 0          | 0          | 0          |   0.0 |  0.00
Modify  | 0          | 0          | 0          |   0.0 |  0.00
Other   |            | 0.08597    |            |       | 60.73

Nlocal:    800 ave 850 max 750 min
Histogram: 16 0 0 0 0 8 0 0 0 16
Nghost:    2539 ave 2589 max 2489 min
Histogram: 16 0 0 0 0 8 0 0 0 16
Neighs:    34400 ave 36652 max 32164 min
Histogram: 16 0 0 0 8 0 0 0 0 16

Total # of neighbors = 1376000
Ave neighs/atom = 43
Neighbor list builds = 0
Dangerous builds = 0
@@@@  (energy per atom): 3.387 -1.52399899262311 27.3232434045395 -1.0271598954944 -1.6991690805627
Lattice spacing in x,y,z = 5.86559 3.3865 5.49968
Created orthogonal box = (0 0 0) to (117.312 67.73 109.994)
  5 by 2 by 4 MPI processor grid
Created 32000 atoms
  create_atoms CPU = 0.00428104 secs
WARNING: Using 'neigh_modify every 1 delay 0 check yes' setting during minimization (../min.cpp:190)
Neighbor list info ...
  update every 1 steps, delay 0 steps, check yes
  max neighbors/atom: 2000, page size: 100000
  master list distance cutoff = 8.3
  ghost atom cutoff = 8.3
  binsize = 4.15, bins = 29 17 27
  1 neighbor lists, perpetual/occasional/extra = 1 0 0
  (1) pair eam/fs, perpetual
      attributes: half, newton on
      pair build: half/bin/atomonly/newton
      stencil: half/bin/3d/newton
      bin: standard
Setting up sd style minimization ...
  Unit style    : metal
  Current step  : 0
Per MPI rank memory allocation (min/avg/max) = 4.557 | 4.557 | 4.558 Mbytes
Step Temp E_pair E_mol TotEng Press 
       0            0    -48770.44            0    -48770.44   -10185.658 
       3            0    -48770.44            0    -48770.44   -10185.658 
Loop time of 0.199621 on 40 procs for 3 steps with 32000 atoms

22.9% CPU use with 40 MPI tasks x no OpenMP threads

Minimization stats:
  Stopping criterion = energy tolerance
  Energy initial, next-to-last, final = 
        -48770.4395023     -48770.4395023     -48770.4395023
  Force two-norm initial, final = 1.09759e-10 2.14218e-12
  Force max component initial, final = 6.39865e-13 2.63e-14
  Final line search alpha, max atom move = 1 2.63e-14
  Iterations, force evaluations = 3 6

MPI task timing breakdown:
Section |  min time  |  avg time  |  max time  |%varavg| %total
---------------------------------------------------------------
Pair    | 0.035396   | 0.048853   | 0.071238   |   3.2 | 24.47
Neigh   | 0          | 0          | 0          |   0.0 |  0.00
Comm    | 0.025988   | 0.049978   | 0.067393   |   4.5 | 25.04
Output  | 0          | 0          | 0          |   0.0 |  0.00
Modify  | 0          | 0          | 0          |   0.0 |  0.00
Other   |            | 0.1008     |            |       | 50.49

Nlocal:    800 ave 800 max 800 min
Histogram: 40 0 0 0 0 0 0 0 0 0
Nghost:    2539 ave 2539 max 2539 min
Histogram: 40 0 0 0 0 0 0 0 0 0
Neighs:    34400 ave 34466 max 34334 min
Histogram: 4 4 4 0 4 12 0 4 4 4

Total # of neighbors = 1376000
Ave neighs/atom = 43
Neighbor list builds = 0
Dangerous builds = 0
@@@@  (energy per atom): 3.3865 -1.52407623444568 27.3111445515472 -1.01856583109683 -1.69770378826608
Lattice spacing in x,y,z = 5.86472 3.386 5.49886
Created orthogonal box = (0 0 0) to (117.294 67.72 109.977)
  5 by 2 by 4 MPI processor grid
Created 32000 atoms
  create_atoms CPU = 0.0236239 secs
WARNING: Using 'neigh_modify every 1 delay 0 check yes' setting during minimization (../min.cpp:190)
Neighbor list info ...
  update every 1 steps, delay 0 steps, check yes
  max neighbors/atom: 2000, page size: 100000
  master list distance cutoff = 8.3
  ghost atom cutoff = 8.3
  binsize = 4.15, bins = 29 17 27
  1 neighbor lists, perpetual/occasional/extra = 1 0 0
  (1) pair eam/fs, perpetual
      attributes: half, newton on
      pair build: half/bin/atomonly/newton
      stencil: half/bin/3d/newton
      bin: standard
Setting up sd style minimization ...
  Unit style    : metal
  Current step  : 0
Per MPI rank memory allocation (min/avg/max) = 4.557 | 4.557 | 4.558 Mbytes
Step Temp E_pair E_mol TotEng Press 
       0            0    -48772.89            0    -48772.89   -10099.382 
       2            0    -48772.89            0    -48772.89   -10099.382 
Loop time of 0.164614 on 40 procs for 2 steps with 32000 atoms

22.2% CPU use with 40 MPI tasks x no OpenMP threads

Minimization stats:
  Stopping criterion = energy tolerance
  Energy initial, next-to-last, final = 
        -48772.8897092     -48772.8897092     -48772.8897092
  Force two-norm initial, final = 8.25855e-11 2.05576e-12
  Force max component initial, final = 5.07476e-13 3.2932e-14
  Final line search alpha, max atom move = 1 3.2932e-14
  Iterations, force evaluations = 2 4

MPI task timing breakdown:
Section |  min time  |  avg time  |  max time  |%varavg| %total
---------------------------------------------------------------
Pair    | 0.044744   | 0.05391    | 0.068784   |   2.3 | 32.75
Neigh   | 0          | 0          | 0          |   0.0 |  0.00
Comm    | 0.021595   | 0.039772   | 0.054365   |   3.2 | 24.16
Output  | 0          | 0          | 0          |   0.0 |  0.00
Modify  | 0          | 0          | 0          |   0.0 |  0.00
Other   |            | 0.07093    |            |       | 43.09

Nlocal:    800 ave 850 max 750 min
Histogram: 8 0 0 0 0 24 0 0 0 8
Nghost:    2539 ave 2589 max 2489 min
Histogram: 8 0 0 0 0 24 0 0 0 8
Neighs:    34400 ave 36652 max 32206 min
Histogram: 8 0 0 0 16 8 0 0 0 8

Total # of neighbors = 1376000
Ave neighs/atom = 43
Neighbor list builds = 0
Dangerous builds = 0
@@@@  (energy per atom): 3.386 -1.5241528034112 27.2990492706993 -1.00993823302244 -1.69623342988177
Lattice spacing in x,y,z = 5.86386 3.3855 5.49805
Created orthogonal box = (0 0 0) to (117.277 67.71 109.961)
  5 by 2 by 4 MPI processor grid
Created 32000 atoms
  create_atoms CPU = 0.0317519 secs
WARNING: Using 'neigh_modify every 1 delay 0 check yes' setting during minimization (../min.cpp:190)
Neighbor list info ...
  update every 1 steps, delay 0 steps, check yes
  max neighbors/atom: 2000, page size: 100000
  master list distance cutoff = 8.3
  ghost atom cutoff = 8.3
  binsize = 4.15, bins = 29 17 27
  1 neighbor lists, perpetual/occasional/extra = 1 0 0
  (1) pair eam/fs, perpetual
      attributes: half, newton on
      pair build: half/bin/atomonly/newton
      stencil: half/bin/3d/newton
      bin: standard
Setting up sd style minimization ...
  Unit style    : metal
  Current step  : 0
Per MPI rank memory allocation (min/avg/max) = 4.557 | 4.557 | 4.558 Mbytes
Step Temp E_pair E_mol TotEng Press 
       0            0   -48775.318            0   -48775.318   -10012.769 
      10            0   -48775.318            0   -48775.318   -10012.769 
      18            0   -48775.318            0   -48775.318   -10012.769 
Loop time of 1.13264 on 40 procs for 18 steps with 32000 atoms

25.7% CPU use with 40 MPI tasks x no OpenMP threads

Minimization stats:
  Stopping criterion = energy tolerance
  Energy initial, next-to-last, final = 
        -48775.3183157     -48775.3183157     -48775.3183157
  Force two-norm initial, final = 5.5313e-11 1.35294e-12
  Force max component initial, final = 3.42002e-13 2.05573e-14
  Final line search alpha, max atom move = 1 2.05573e-14
  Iterations, force evaluations = 18 36

MPI task timing breakdown:
Section |  min time  |  avg time  |  max time  |%varavg| %total
---------------------------------------------------------------
Pair    | 0.29997    | 0.343      | 0.3783     |   3.1 | 30.28
Neigh   | 0          | 0          | 0          |   0.0 |  0.00
Comm    | 0.22748    | 0.26828    | 0.30631    |   3.9 | 23.69
Output  | 0.025415   | 0.030332   | 0.037964   |   2.3 |  2.68
Modify  | 0          | 0          | 0          |   0.0 |  0.00
Other   |            | 0.491      |            |       | 43.35

Nlocal:    800 ave 850 max 750 min
Histogram: 16 0 0 0 0 8 0 0 0 16
Nghost:    2539 ave 2589 max 2489 min
Histogram: 16 0 0 0 0 8 0 0 0 16
Neighs:    34400 ave 36652 max 32164 min
Histogram: 16 0 0 0 8 0 0 0 0 16

Total # of neighbors = 1376000
Ave neighs/atom = 43
Neighbor list builds = 0
Dangerous builds = 0
@@@@  (energy per atom): 3.3855 -1.52422869736461 27.2869575614683 -1.00127690013418 -1.694757976013
Lattice spacing in x,y,z = 5.86299 3.385 5.49724
Created orthogonal box = (0 0 0) to (117.26 67.7 109.945)
  5 by 2 by 4 MPI processor grid
Created 32000 atoms
  create_atoms CPU = 0.0121789 secs
WARNING: Using 'neigh_modify every 1 delay 0 check yes' setting during minimization (../min.cpp:190)
Neighbor list info ...
  update every 1 steps, delay 0 steps, check yes
  max neighbors/atom: 2000, page size: 100000
  master list distance cutoff = 8.3
  ghost atom cutoff = 8.3
  binsize = 4.15, bins = 29 17 27
  1 neighbor lists, perpetual/occasional/extra = 1 0 0
  (1) pair eam/fs, perpetual
      attributes: half, newton on
      pair build: half/bin/atomonly/newton
      stencil: half/bin/3d/newton
      bin: standard
Setting up sd style minimization ...
  Unit style    : metal
  Current step  : 0
Per MPI rank memory allocation (min/avg/max) = 4.557 | 4.557 | 4.558 Mbytes
Step Temp E_pair E_mol TotEng Press 
       0            0   -48777.725            0   -48777.725    -9925.818 
       2            0   -48777.725            0   -48777.725    -9925.818 
Loop time of 0.187236 on 40 procs for 2 steps with 32000 atoms

29.5% CPU use with 40 MPI tasks x no OpenMP threads

Minimization stats:
  Stopping criterion = energy tolerance
  Energy initial, next-to-last, final = 
        -48777.7252527     -48777.7252527     -48777.7252527
  Force two-norm initial, final = 2.82027e-11 2.63429e-12
  Force max component initial, final = 1.89165e-13 2.88623e-14
  Final line search alpha, max atom move = 1 2.88623e-14
  Iterations, force evaluations = 2 4

MPI task timing breakdown:
Section |  min time  |  avg time  |  max time  |%varavg| %total
---------------------------------------------------------------
Pair    | 0.034376   | 0.049527   | 0.062958   |   2.9 | 26.45
Neigh   | 0          | 0          | 0          |   0.0 |  0.00
Comm    | 0.01673    | 0.029415   | 0.042226   |   4.0 | 15.71
Output  | 0          | 0          | 0          |   0.0 |  0.00
Modify  | 0          | 0          | 0          |   0.0 |  0.00
Other   |            | 0.1083     |            |       | 57.84

Nlocal:    800 ave 850 max 750 min
Histogram: 16 0 0 0 0 8 0 0 0 16
Nghost:    2539 ave 2589 max 2489 min
Histogram: 16 0 0 0 0 8 0 0 0 16
Neighs:    34400 ave 36652 max 32164 min
Histogram: 16 0 0 0 8 0 0 0 0 16

Total # of neighbors = 1376000
Ave neighs/atom = 43
Neighbor list builds = 0
Dangerous builds = 0
@@@@  (energy per atom): 3.385 -1.52430391414821 27.2748694233268 -0.992581801555204 -1.69327742630113
Lattice spacing in x,y,z = 5.86213 3.3845 5.49643
Created orthogonal box = (0 0 0) to (117.243 67.69 109.929)
  5 by 2 by 4 MPI processor grid
Created 32000 atoms
  create_atoms CPU = 0.0280929 secs
WARNING: Using 'neigh_modify every 1 delay 0 check yes' setting during minimization (../min.cpp:190)
Neighbor list info ...
  update every 1 steps, delay 0 steps, check yes
  max neighbors/atom: 2000, page size: 100000
  master list distance cutoff = 8.3
  ghost atom cutoff = 8.3
  binsize = 4.15, bins = 29 17 27
  1 neighbor lists, perpetual/occasional/extra = 1 0 0
  (1) pair eam/fs, perpetual
      attributes: half, newton on
      pair build: half/bin/atomonly/newton
      stencil: half/bin/3d/newton
      bin: standard
Setting up sd style minimization ...
  Unit style    : metal
  Current step  : 0
Per MPI rank memory allocation (min/avg/max) = 4.557 | 4.557 | 4.558 Mbytes
Step Temp E_pair E_mol TotEng Press 
       0            0    -48780.11            0    -48780.11    -9838.529 
       1            0    -48780.11            0    -48780.11    -9838.529 
Loop time of 0.117562 on 40 procs for 1 steps with 32000 atoms

28.7% CPU use with 40 MPI tasks x no OpenMP threads

Minimization stats:
  Stopping criterion = energy tolerance
  Energy initial, next-to-last, final = 
        -48780.1104513     -48780.1104513     -48780.1104513
  Force two-norm initial, final = 3.01739e-12 2.32941e-12
  Force max component initial, final = 3.94667e-14 2.42705e-14
  Final line search alpha, max atom move = 1 2.42705e-14
  Iterations, force evaluations = 1 2

MPI task timing breakdown:
Section |  min time  |  avg time  |  max time  |%varavg| %total
---------------------------------------------------------------
Pair    | 0.010379   | 0.015082   | 0.022144   |   2.1 | 12.83
Neigh   | 0          | 0          | 0          |   0.0 |  0.00
Comm    | 0.010137   | 0.017603   | 0.028691   |   3.4 | 14.97
Output  | 0          | 0          | 0          |   0.0 |  0.00
Modify  | 0          | 0          | 0          |   0.0 |  0.00
Other   |            | 0.08488    |            |       | 72.20

Nlocal:    800 ave 800 max 800 min
Histogram: 40 0 0 0 0 0 0 0 0 0
Nghost:    2539 ave 2539 max 2539 min
Histogram: 40 0 0 0 0 0 0 0 0 0
Neighs:    34400 ave 34466 max 34334 min
Histogram: 4 4 4 0 4 12 0 4 4 4

Total # of neighbors = 1376000
Ave neighs/atom = 43
Neighbor list builds = 0
Dangerous builds = 0
@@@@  (energy per atom): 3.3845 -1.52437845160435 27.2627848557474 -0.983852902210539 -1.69179177967819
Lattice spacing in x,y,z = 5.86126 3.384 5.49562
Created orthogonal box = (0 0 0) to (117.225 67.68 109.912)
  5 by 2 by 4 MPI processor grid
Created 32000 atoms
  create_atoms CPU = 0.0168459 secs
WARNING: Using 'neigh_modify every 1 delay 0 check yes' setting during minimization (../min.cpp:190)
Neighbor list info ...
  update every 1 steps, delay 0 steps, check yes
  max neighbors/atom: 2000, page size: 100000
  master list distance cutoff = 8.3
  ghost atom cutoff = 8.3
  binsize = 4.15, bins = 29 17 27
  1 neighbor lists, perpetual/occasional/extra = 1 0 0
  (1) pair eam/fs, perpetual
      attributes: half, newton on
      pair build: half/bin/atomonly/newton
      stencil: half/bin/3d/newton
      bin: standard
Setting up sd style minimization ...
  Unit style    : metal
  Current step  : 0
Per MPI rank memory allocation (min/avg/max) = 4.557 | 4.557 | 4.558 Mbytes
Step Temp E_pair E_mol TotEng Press 
       0            0   -48782.474            0   -48782.474   -9750.9017 
       1            0   -48782.474            0   -48782.474   -9750.9017 
Loop time of 0.103597 on 40 procs for 1 steps with 32000 atoms

29.0% CPU use with 40 MPI tasks x no OpenMP threads

Minimization stats:
  Stopping criterion = energy tolerance
  Energy initial, next-to-last, final = 
        -48782.4738424     -48782.4738424     -48782.4738424
  Force two-norm initial, final = 2.67316e-11 8.9505e-12
  Force max component initial, final = 1.79131e-13 1.26202e-13
  Final line search alpha, max atom move = 1 1.26202e-13
  Iterations, force evaluations = 1 2

MPI task timing breakdown:
Section |  min time  |  avg time  |  max time  |%varavg| %total
---------------------------------------------------------------
Pair    | 0.027861   | 0.036066   | 0.047361   |   2.3 | 34.81
Neigh   | 0          | 0          | 0          |   0.0 |  0.00
[...]

22.7% CPU use with 40 MPI tasks x no OpenMP threads

Minimization stats:
  Stopping criterion = energy tolerance
  Energy initial, next-to-last, final = 
        -22580.1593871     -22580.1593871     -22580.1593871
  Force two-norm initial, final = 1.55396e-07 1.00532e-11
  Force max component initial, final = 8.68772e-10 1.00932e-13
  Final line search alpha, max atom move = 1 1.00932e-13
  Iterations, force evaluations = 72 144

MPI task timing breakdown:
Section |  min time  |  avg time  |  max time  |%varavg| %total
---------------------------------------------------------------
Pair    | 1.4798     | 1.5851     | 1.7061     |   4.6 | 30.12
Neigh   | 0          | 0          | 0          |   0.0 |  0.00
Comm    | 1.2369     | 1.4143     | 1.5194     |   6.4 | 26.87
Output  | 0.093292   | 0.098794   | 0.10648    |   1.1 |  1.88
Modify  | 0          | 0          | 0          |   0.0 |  0.00
Other   |            | 2.165      |            |       | 41.13

Nlocal:    800 ave 800 max 800 min
Histogram: 40 0 0 0 0 0 0 0 0 0
Nghost:    3152 ave 3152 max 3152 min
Histogram: 40 0 0 0 0 0 0 0 0 0
Neighs:    58400 ave 59781 max 57085 min
Histogram: 5 3 2 3 7 9 1 4 2 4

Total # of neighbors = 2336000
Ave neighs/atom = 73
Neighbor list builds = 0
Dangerous builds = 0
@@@@  (energy per atom): 2.8245 -0.705629980846121 15.8456988656208 42.6563093124571 3.51312514434745
Lattice spacing in x,y,z = 4.89131 2.824 4.58618
Created orthogonal box = (0 0 0) to (97.8262 56.48 91.7235)
  5 by 2 by 4 MPI processor grid
Created 32000 atoms
  create_atoms CPU = 0.019623 secs
WARNING: Using 'neigh_modify every 1 delay 0 check yes' setting during minimization (../min.cpp:190)
Neighbor list info ...
  update every 1 steps, delay 0 steps, check yes
  max neighbors/atom: 2000, page size: 100000
  master list distance cutoff = 8.3
  ghost atom cutoff = 8.3
  binsize = 4.15, bins = 24 14 23
  1 neighbor lists, perpetual/occasional/extra = 1 0 0
  (1) pair eam/fs, perpetual
      attributes: half, newton on
      pair build: half/bin/atomonly/newton
      stencil: half/bin/3d/newton
      bin: standard
Setting up sd style minimization ...
  Unit style    : metal
  Current step  : 0
Per MPI rank memory allocation (min/avg/max) = 4.58 | 4.58 | 4.581 Mbytes
Step Temp E_pair E_mol TotEng Press 
       0            0   -22508.392            0   -22508.392    427585.17 
       5            0   -22508.392            0   -22508.392    427585.17 
Loop time of 0.38812 on 40 procs for 5 steps with 32000 atoms

22.7% CPU use with 40 MPI tasks x no OpenMP threads

Minimization stats:
  Stopping criterion = energy tolerance
  Energy initial, next-to-last, final = 
        -22508.3920387     -22508.3920386     -22508.3920386
  Force two-norm initial, final = 1.5557e-07 7.1858e-12
  Force max component initial, final = 8.6979e-10 1.3831e-13
  Final line search alpha, max atom move = 1 1.3831e-13
  Iterations, force evaluations = 5 10

MPI task timing breakdown:
Section |  min time  |  avg time  |  max time  |%varavg| %total
---------------------------------------------------------------
Pair    | 0.10594    | 0.12292    | 0.14728    |   3.1 | 31.67
Neigh   | 0          | 0          | 0          |   0.0 |  0.00
Comm    | 0.070454   | 0.091972   | 0.12944    |   4.1 | 23.70
Output  | 0          | 0          | 0          |   0.0 |  0.00
Modify  | 0          | 0          | 0          |   0.0 |  0.00
Other   |            | 0.1732     |            |       | 44.63

Nlocal:    800 ave 850 max 750 min
Histogram: 16 0 0 0 0 8 0 0 0 16
Nghost:    3152 ave 3202 max 3102 min
Histogram: 16 0 0 0 0 8 0 0 0 16
Neighs:    58400 ave 62691 max 54130 min
Histogram: 8 8 0 0 4 4 0 0 8 8

Total # of neighbors = 2336000
Ave neighs/atom = 73
Neighbor list builds = 0
Dangerous builds = 0
@@@@  (energy per atom): 2.824 -0.703387251207743 15.8372852203812 42.7585169871497 3.52323090931329
Lattice spacing in x,y,z = 4.89045 2.8235 4.58536
Created orthogonal box = (0 0 0) to (97.8089 56.47 91.7073)
  5 by 2 by 4 MPI processor grid
Created 32000 atoms
  create_atoms CPU = 0.0304122 secs
WARNING: Using 'neigh_modify every 1 delay 0 check yes' setting during minimization (../min.cpp:190)
Neighbor list info ...
  update every 1 steps, delay 0 steps, check yes
  max neighbors/atom: 2000, page size: 100000
  master list distance cutoff = 8.3
  ghost atom cutoff = 8.3
  binsize = 4.15, bins = 24 14 23
  1 neighbor lists, perpetual/occasional/extra = 1 0 0
  (1) pair eam/fs, perpetual
      attributes: half, newton on
      pair build: half/bin/atomonly/newton
      stencil: half/bin/3d/newton
      bin: standard
Setting up sd style minimization ...
  Unit style    : metal
  Current step  : 0
Per MPI rank memory allocation (min/avg/max) = 4.58 | 4.58 | 4.581 Mbytes
Step Temp E_pair E_mol TotEng Press 
       0            0   -22436.478            0   -22436.478    428609.04 
       8            0   -22436.478            0   -22436.478    428609.04 
Loop time of 0.590456 on 40 procs for 8 steps with 32000 atoms

22.9% CPU use with 40 MPI tasks x no OpenMP threads

Minimization stats:
  Stopping criterion = energy tolerance
  Energy initial, next-to-last, final = 
        -22436.4782551     -22436.4782551     -22436.4782551
  Force two-norm initial, final = 1.55742e-07 7.3218e-12
  Force max component initial, final = 8.70758e-10 1.33342e-13
  Final line search alpha, max atom move = 1 1.33342e-13
  Iterations, force evaluations = 8 16

MPI task timing breakdown:
Section |  min time  |  avg time  |  max time  |%varavg| %total
---------------------------------------------------------------
Pair    | 0.17473    | 0.1962     | 0.22483    |   2.8 | 33.23
Neigh   | 0          | 0          | 0          |   0.0 |  0.00
Comm    | 0.12575    | 0.15138    | 0.1861     |   4.2 | 25.64
Output  | 0          | 0          | 0          |   0.0 |  0.00
Modify  | 0          | 0          | 0          |   0.0 |  0.00
Other   |            | 0.2429     |            |       | 41.13

Nlocal:    800 ave 850 max 750 min
Histogram: 8 0 0 0 0 24 0 0 0 8
Nghost:    3152 ave 3202 max 3102 min
Histogram: 8 0 0 0 0 24 0 0 0 8
Neighs:    58400 ave 62830 max 53993 min
Histogram: 4 4 0 0 12 12 0 0 4 4

Total # of neighbors = 2336000
Ave neighs/atom = 73
Neighbor list builds = 0
Dangerous builds = 0
@@@@  (energy per atom): 2.8235 -0.701139945470419 15.8288745539502 42.8609040787833 3.53334903830855
Lattice spacing in x,y,z = 4.88958 2.823 4.58455
Created orthogonal box = (0 0 0) to (97.7916 56.46 91.691)
  5 by 2 by 4 MPI processor grid
Created 32000 atoms
  create_atoms CPU = 0.015594 secs
WARNING: Using 'neigh_modify every 1 delay 0 check yes' setting during minimization (../min.cpp:190)
Neighbor list info ...
  update every 1 steps, delay 0 steps, check yes
  max neighbors/atom: 2000, page size: 100000
  master list distance cutoff = 8.3
  ghost atom cutoff = 8.3
  binsize = 4.15, bins = 24 14 23
  1 neighbor lists, perpetual/occasional/extra = 1 0 0
  (1) pair eam/fs, perpetual
      attributes: half, newton on
      pair build: half/bin/atomonly/newton
      stencil: half/bin/3d/newton
      bin: standard
Setting up sd style minimization ...
  Unit style    : metal
  Current step  : 0
Per MPI rank memory allocation (min/avg/max) = 4.58 | 4.58 | 4.581 Mbytes
Step Temp E_pair E_mol TotEng Press 
       0            0   -22364.418            0   -22364.418    429634.71 
       6            0   -22364.418            0   -22364.418    429634.71 
Loop time of 0.527638 on 40 procs for 6 steps with 32000 atoms

22.9% CPU use with 40 MPI tasks x no OpenMP threads

Minimization stats:
  Stopping criterion = energy tolerance
  Energy initial, next-to-last, final = 
        -22364.4178521     -22364.4178521     -22364.4178521
  Force two-norm initial, final = 1.55916e-07 8.23246e-12
  Force max component initial, final = 8.71682e-10 1.21389e-13
  Final line search alpha, max atom move = 1 1.21389e-13
  Iterations, force evaluations = 6 12

MPI task timing breakdown:
Section |  min time  |  avg time  |  max time  |%varavg| %total
---------------------------------------------------------------
Pair    | 0.12186    | 0.14341    | 0.1676     |   3.0 | 27.18
Neigh   | 0          | 0          | 0          |   0.0 |  0.00
Comm    | 0.11628    | 0.13783    | 0.16255    |   3.2 | 26.12
Output  | 0          | 0          | 0          |   0.0 |  0.00
Modify  | 0          | 0          | 0          |   0.0 |  0.00
Other   |            | 0.2464     |            |       | 46.70

Nlocal:    800 ave 800 max 800 min
Histogram: 40 0 0 0 0 0 0 0 0 0
Nghost:    3152 ave 3152 max 3152 min
Histogram: 40 0 0 0 0 0 0 0 0 0
Neighs:    58400 ave 58815 max 58030 min
Histogram: 4 4 8 2 2 4 2 10 2 2

Total # of neighbors = 2336000
Ave neighs/atom = 73
Neighbor list builds = 0
Dangerous builds = 0
@@@@  (energy per atom): 2.823 -0.69888805787751 15.8204668658006 42.9634707298996 3.54347952847873
Lattice spacing in x,y,z = 4.88871 2.8225 4.58374
Created orthogonal box = (0 0 0) to (97.7743 56.45 91.6748)
  5 by 2 by 4 MPI processor grid
Created 32000 atoms
  create_atoms CPU = 0.0251288 secs
WARNING: Using 'neigh_modify every 1 delay 0 check yes' setting during minimization (../min.cpp:190)
Neighbor list info ...
  update every 1 steps, delay 0 steps, check yes
  max neighbors/atom: 2000, page size: 100000
  master list distance cutoff = 8.3
  ghost atom cutoff = 8.3
  binsize = 4.15, bins = 24 14 23
  1 neighbor lists, perpetual/occasional/extra = 1 0 0
  (1) pair eam/fs, perpetual
      attributes: half, newton on
      pair build: half/bin/atomonly/newton
      stencil: half/bin/3d/newton
      bin: standard
Setting up sd style minimization ...
  Unit style    : metal
  Current step  : 0
Per MPI rank memory allocation (min/avg/max) = 4.58 | 4.58 | 4.581 Mbytes
Step Temp E_pair E_mol TotEng Press 
       0            0   -22292.211            0   -22292.211    430662.17 
       8            0   -22292.211            0   -22292.211    430662.17 
Loop time of 0.637909 on 40 procs for 8 steps with 32000 atoms

22.7% CPU use with 40 MPI tasks x no OpenMP threads

Minimization stats:
  Stopping criterion = energy tolerance
  Energy initial, next-to-last, final = 
        -22292.2106456     -22292.2106456     -22292.2106456
  Force two-norm initial, final = 1.56089e-07 9.22717e-12
  Force max component initial, final = 8.72698e-10 1.05946e-13
  Final line search alpha, max atom move = 1 1.05946e-13
  Iterations, force evaluations = 8 16

MPI task timing breakdown:
Section |  min time  |  avg time  |  max time  |%varavg| %total
---------------------------------------------------------------
Pair    | 0.17248    | 0.19409    | 0.20678    |   2.2 | 30.43
Neigh   | 0          | 0          | 0          |   0.0 |  0.00
Comm    | 0.13473    | 0.1729     | 0.20835    |   5.2 | 27.10
Output  | 0          | 0          | 0          |   0.0 |  0.00
Modify  | 0          | 0          | 0          |   0.0 |  0.00
Other   |            | 0.2709     |            |       | 42.47

Nlocal:    800 ave 800 max 800 min
Histogram: 40 0 0 0 0 0 0 0 0 0
Nghost:    3152 ave 3152 max 3152 min
Histogram: 40 0 0 0 0 0 0 0 0 0
Neighs:    58400 ave 58815 max 58030 min
Histogram: 4 4 8 2 2 4 2 10 2 2

Total # of neighbors = 2336000
Ave neighs/atom = 73
Neighbor list builds = 0
Dangerous builds = 0
@@@@  (energy per atom): 2.8225 -0.696631582674231 15.8120621554048 43.0662170831185 3.55362237696396
Lattice spacing in x,y,z = 4.88785 2.822 4.58293
Created orthogonal box = (0 0 0) to (97.7569 56.44 91.6586)
  5 by 2 by 4 MPI processor grid
Created 32000 atoms
  create_atoms CPU = 0.0501299 secs
WARNING: Using 'neigh_modify every 1 delay 0 check yes' setting during minimization (../min.cpp:190)
Neighbor list info ...
  update every 1 steps, delay 0 steps, check yes
  max neighbors/atom: 2000, page size: 100000
  master list distance cutoff = 8.3
  ghost atom cutoff = 8.3
  binsize = 4.15, bins = 24 14 23
  1 neighbor lists, perpetual/occasional/extra = 1 0 0
  (1) pair eam/fs, perpetual
      attributes: half, newton on
      pair build: half/bin/atomonly/newton
      stencil: half/bin/3d/newton
      bin: standard
Setting up sd style minimization ...
  Unit style    : metal
  Current step  : 0
Per MPI rank memory allocation (min/avg/max) = 4.548 | 4.564 | 4.581 Mbytes
Step Temp E_pair E_mol TotEng Press 
       0            0   -22219.856            0   -22219.856    431691.43 
       9            0   -22219.856            0   -22219.856    431691.43 
Loop time of 0.650715 on 40 procs for 9 steps with 32000 atoms

22.7% CPU use with 40 MPI tasks x no OpenMP threads

Minimization stats:
  Stopping criterion = energy tolerance
  Energy initial, next-to-last, final = 
        -22219.8564514     -22219.8564514     -22219.8564514
  Force two-norm initial, final = 1.56261e-07 8.75128e-12
  Force max component initial, final = 8.73664e-10 1.1216e-13
  Final line search alpha, max atom move = 1 1.1216e-13
  Iterations, force evaluations = 9 18

MPI task timing breakdown:
Section |  min time  |  avg time  |  max time  |%varavg| %total
---------------------------------------------------------------
Pair    | 0.18897    | 0.21099    | 0.23657    |   2.5 | 32.42
Neigh   | 0          | 0          | 0          |   0.0 |  0.00
Comm    | 0.1436     | 0.17418    | 0.19962    |   3.6 | 26.77
Output  | 0          | 0          | 0          |   0.0 |  0.00
Modify  | 0          | 0          | 0          |   0.0 |  0.00
Other   |            | 0.2655     |            |       | 40.81

Nlocal:    800 ave 940 max 680 min
Histogram: 4 2 8 4 4 4 8 2 0 4
Nghost:    3152 ave 3272 max 3012 min
Histogram: 4 0 2 8 4 4 4 8 2 4
Neighs:    58400 ave 68205 max 49973 min
Histogram: 4 2 12 0 4 3 7 4 0 4

Total # of neighbors = 2336000
Ave neighs/atom = 73
Neighbor list builds = 0
Dangerous builds = 0
@@@@  (energy per atom): 2.822 -0.694370514107343 15.8036604222355 43.1691432829789 3.56377758108084
Lattice spacing in x,y,z = 4.88698 2.8215 4.58212
Created orthogonal box = (0 0 0) to (97.7396 56.43 91.6423)
  5 by 2 by 4 MPI processor grid
Created 32000 atoms
  create_atoms CPU = 0.030081 secs
WARNING: Using 'neigh_modify every 1 delay 0 check yes' setting during minimization (../min.cpp:190)
Neighbor list info ...
  update every 1 steps, delay 0 steps, check yes
  max neighbors/atom: 2000, page size: 100000
  master list distance cutoff = 8.3
  ghost atom cutoff = 8.3
  binsize = 4.15, bins = 24 14 23
  1 neighbor lists, perpetual/occasional/extra = 1 0 0
  (1) pair eam/fs, perpetual
      attributes: half, newton on
      pair build: half/bin/atomonly/newton
      stencil: half/bin/3d/newton
      bin: standard
Setting up sd style minimization ...
  Unit style    : metal
  Current step  : 0
Per MPI rank memory allocation (min/avg/max) = 4.58 | 4.58 | 4.581 Mbytes
Step Temp E_pair E_mol TotEng Press 
       0            0   -22147.355            0   -22147.355    432722.49 
       4            0   -22147.355            0   -22147.355    432722.49 
Loop time of 0.324694 on 40 procs for 4 steps with 32000 atoms

22.6% CPU use with 40 MPI tasks x no OpenMP threads

Minimization stats:
  Stopping criterion = energy tolerance
  Energy initial, next-to-last, final = 
        -22147.3550856     -22147.3550856     -22147.3550856
  Force two-norm initial, final = 1.56434e-07 9.01494e-12
  Force max component initial, final = 8.7462e-10 9.96911e-14
  Final line search alpha, max atom move = 1 9.96911e-14
  Iterations, force evaluations = 4 8

MPI task timing breakdown:
Section |  min time  |  avg time  |  max time  |%varavg| %total
---------------------------------------------------------------
Pair    | 0.088961   | 0.10146    | 0.11311    |   1.7 | 31.25
Neigh   | 0          | 0          | 0          |   0.0 |  0.00
Comm    | 0.044254   | 0.061878   | 0.08799    |   3.1 | 19.06
Output  | 0          | 0          | 0          |   0.0 |  0.00
Modify  | 0          | 0          | 0          |   0.0 |  0.00
Other   |            | 0.1614     |            |       | 49.70

Nlocal:    800 ave 850 max 750 min
Histogram: 16 0 0 0 0 8 0 0 0 16
Nghost:    3152 ave 3202 max 3102 min
Histogram: 16 0 0 0 0 8 0 0 0 16
Neighs:    58400 ave 62691 max 54130 min
Histogram: 8 8 0 0 4 4 0 0 8 8

Total # of neighbors = 2336000
Ave neighs/atom = 73
Neighbor list builds = 0
Dangerous builds = 0
@@@@  (energy per atom): 2.8215 -0.692104846424958 15.7952616657653 43.2722494729006 3.57394513802269
Lattice spacing in x,y,z = 4.88612 2.821 4.5813
Created orthogonal box = (0 0 0) to (97.7223 56.42 91.6261)
  5 by 2 by 4 MPI processor grid
Created 32000 atoms
  create_atoms CPU = 0.017812 secs
WARNING: Using 'neigh_modify every 1 delay 0 check yes' setting during minimization (../min.cpp:190)
Neighbor list info ...
  update every 1 steps, delay 0 steps, check yes
  max neighbors/atom: 2000, page size: 100000
  master list distance cutoff = 8.3
  ghost atom cutoff = 8.3
  binsize = 4.15, bins = 24 14 23
  1 neighbor lists, perpetual/occasional/extra = 1 0 0
  (1) pair eam/fs, perpetual
      attributes: half, newton on
      pair build: half/bin/atomonly/newton
      stencil: half/bin/3d/newton
      bin: standard
Setting up sd style minimization ...
  Unit style    : metal
  Current step  : 0
Per MPI rank memory allocation (min/avg/max) = 4.58 | 4.58 | 4.581 Mbytes
Step Temp E_pair E_mol TotEng Press 
       0            0   -22074.706            0   -22074.706    433755.36 
       7            0   -22074.706            0   -22074.706    433755.36 
Loop time of 0.558531 on 40 procs for 7 steps with 32000 atoms

22.5% CPU use with 40 MPI tasks x no OpenMP threads

Minimization stats:
  Stopping criterion = energy tolerance
  Energy initial, next-to-last, final = 
        -22074.7063641     -22074.7063641     -22074.7063641
  Force two-norm initial, final = 1.56606e-07 8.82532e-12
  Force max component initial, final = 8.75541e-10 1.11799e-13
  Final line search alpha, max atom move = 1 1.11799e-13
  Iterations, force evaluations = 7 14

MPI task timing breakdown:
Section |  min time  |  avg time  |  max time  |%varavg| %total
---------------------------------------------------------------
Pair    | 0.15275    | 0.17332    | 0.1982     |   2.6 | 31.03
Neigh   | 0          | 0          | 0          |   0.0 |  0.00
Comm    | 0.10718    | 0.14299    | 0.17143    |   4.4 | 25.60
Output  | 0          | 0          | 0          |   0.0 |  0.00
Modify  | 0          | 0          | 0          |   0.0 |  0.00
Other   |            | 0.2422     |            |       | 43.37

Nlocal:    800 ave 800 max 800 min
Histogram: 40 0 0 0 0 0 0 0 0 0
Nghost:    3152 ave 3152 max 3152 min
Histogram: 40 0 0 0 0 0 0 0 0 0
Neighs:    58400 ave 58815 max 58030 min
Histogram: 4 4 8 2 2 4 2 10 2 2

Total # of neighbors = 2336000
Ave neighs/atom = 73
Neighbor list builds = 0
Dangerous builds = 0
@@@@  (energy per atom): 2.821 -0.689834573876733 15.7868658854667 43.3755357970371 3.58412504504218
Lattice spacing in x,y,z = 4.88525 2.8205 4.58049
Created orthogonal box = (0 0 0) to (97.705 56.41 91.6098)
  5 by 2 by 4 MPI processor grid
Created 32000 atoms
  create_atoms CPU = 0.0433829 secs
WARNING: Using 'neigh_modify every 1 delay 0 check yes' setting during minimization (../min.cpp:190)
Neighbor list info ...
  update every 1 steps, delay 0 steps, check yes
  max neighbors/atom: 2000, page size: 100000
  master list distance cutoff = 8.3
  ghost atom cutoff = 8.3
  binsize = 4.15, bins = 24 14 23
  1 neighbor lists, perpetual/occasional/extra = 1 0 0
  (1) pair eam/fs, perpetual
      attributes: half, newton on
      pair build: half/bin/atomonly/newton
      stencil: half/bin/3d/newton
      bin: standard
Setting up sd style minimization ...
  Unit style    : metal
  Current step  : 0
Per MPI rank memory allocation (min/avg/max) = 4.58 | 4.58 | 4.581 Mbytes
Step Temp E_pair E_mol TotEng Press 
       0            0    -22001.91            0    -22001.91    434790.02 
