   4   4   0   0
  0.1615167E+02  0.4012599E-09  0.4012599E-09  0.4012599E-09  0.5000000E-15
  1.000000000000000E-004
  CAR 
 unknown system                          
     19.40315672    -22.29914677  301     16.51768450      1.00000000
    -22.299  0.0000E+00  0.0000E+00
    -22.160  0.0000E+00  0.0000E+00
    -22.021  0.0000E+00  0.0000E+00
    -21.882  0.0000E+00  0.0000E+00
    -21.743  0.0000E+00  0.0000E+00
    -21.604  0.0000E+00  0.0000E+00
    -21.465  0.0000E+00  0.0000E+00
    -21.326 -0.8034E-38 -0.1117E-38
    -21.187 -0.1359E-27 -0.1889E-28
    -21.048 -0.4668E-19 -0.6489E-20
    -20.909 -0.3084E-12 -0.4287E-13
    -20.770 -0.3976E-07 -0.5527E-08
    -20.631 -0.8853E-04 -0.1231E-04
    -20.492 -0.2592E-02 -0.3727E-03
    -20.353  0.4424E-01  0.5778E-02
    -20.214  0.3334E+00  0.5213E-01
    -20.075  0.3710E+00  0.1037E+00
    -19.936  0.5921E+00  0.1860E+00
    -19.797  0.8914E+00  0.3099E+00
    -19.658  0.3749E+00  0.3620E+00
    -19.519  0.1152E+01  0.5222E+00
    -19.380  0.1062E+01  0.6697E+00
    -19.241  0.1095E+01  0.8219E+00
    -19.102  0.1153E+01  0.9822E+00
    -18.963  0.1019E+01  0.1124E+01
    -18.824  0.1974E+01  0.1398E+01
    -18.685  0.2092E+01  0.1689E+01
    -18.546  0.1122E+01  0.1845E+01
    -18.407  0.1930E+01  0.2113E+01
    -18.268  0.2928E+01  0.2520E+01
    -18.129  0.2662E+01  0.2890E+01
    -17.990  0.3748E+01  0.3411E+01
    -17.851  0.4209E+01  0.3996E+01
    -17.712  0.3652E+01  0.4504E+01
    -17.573  0.5882E+01  0.5322E+01
    -17.434  0.4749E+01  0.5982E+01
    -17.295  0.3667E+01  0.6492E+01
    -17.156  0.7409E+01  0.7521E+01
    -17.017  0.3444E+01  0.8000E+01
    -16.878  0.1339E-01  0.8002E+01
    -16.739 -0.1506E-01  0.8000E+01
    -16.600 -0.1478E-04  0.8000E+01
    -16.461 -0.2826E-09  0.8000E+01
    -16.322 -0.1123E-15  0.8000E+01
    -16.183  0.0000E+00  0.8000E+01
    -16.044  0.0000E+00  0.8000E+01
    -15.905  0.0000E+00  0.8000E+01
    -15.766  0.0000E+00  0.8000E+01
    -15.627  0.0000E+00  0.8000E+01
    -15.488  0.0000E+00  0.8000E+01
    -15.349  0.0000E+00  0.8000E+01
    -15.210  0.0000E+00  0.8000E+01
    -15.071  0.0000E+00  0.8000E+01
    -14.932  0.0000E+00  0.8000E+01
    -14.793  0.0000E+00  0.8000E+01
    -14.654  0.0000E+00  0.8000E+01
    -14.515  0.0000E+00  0.8000E+01
    -14.376  0.0000E+00  0.8000E+01
    -14.237  0.0000E+00  0.8000E+01
    -14.098  0.0000E+00  0.8000E+01
    -13.959  0.0000E+00  0.8000E+01
    -13.820  0.0000E+00  0.8000E+01
    -13.681  0.0000E+00  0.8000E+01
    -13.542  0.0000E+00  0.8000E+01
    -13.403  0.0000E+00  0.8000E+01
    -13.264  0.0000E+00  0.8000E+01
    -13.125  0.0000E+00  0.8000E+01
    -12.986  0.0000E+00  0.8000E+01
    -12.847  0.0000E+00  0.8000E+01
    -12.708  0.0000E+00  0.8000E+01
    -12.569  0.0000E+00  0.8000E+01
    -12.430  0.0000E+00  0.8000E+01
    -12.291  0.0000E+00  0.8000E+01
    -12.152  0.0000E+00  0.8000E+01
    -12.013  0.0000E+00  0.8000E+01
    -11.874  0.0000E+00  0.8000E+01
    -11.735  0.0000E+00  0.8000E+01
    -11.596  0.0000E+00  0.8000E+01
    -11.457  0.0000E+00  0.8000E+01
    -11.318  0.0000E+00  0.8000E+01
    -11.179  0.0000E+00  0.8000E+01
    -11.040  0.0000E+00  0.8000E+01
    -10.901  0.0000E+00  0.8000E+01
    -10.762  0.0000E+00  0.8000E+01
    -10.623  0.0000E+00  0.8000E+01
    -10.483  0.0000E+00  0.8000E+01
    -10.344  0.0000E+00  0.8000E+01
    -10.205  0.0000E+00  0.8000E+01
    -10.066  0.0000E+00  0.8000E+01
     -9.927  0.0000E+00  0.8000E+01
     -9.788  0.0000E+00  0.8000E+01
     -9.649  0.0000E+00  0.8000E+01
     -9.510  0.0000E+00  0.8000E+01
     -9.371  0.0000E+00  0.8000E+01
     -9.232  0.0000E+00  0.8000E+01
     -9.093  0.0000E+00  0.8000E+01
     -8.954  0.0000E+00  0.8000E+01
     -8.815  0.0000E+00  0.8000E+01
     -8.676  0.0000E+00  0.8000E+01
     -8.537  0.0000E+00  0.8000E+01
     -8.398  0.0000E+00  0.8000E+01
     -8.259  0.0000E+00  0.8000E+01
     -8.120  0.0000E+00  0.8000E+01
     -7.981  0.0000E+00  0.8000E+01
     -7.842  0.0000E+00  0.8000E+01
     -7.703  0.0000E+00  0.8000E+01
     -7.564  0.0000E+00  0.8000E+01
     -7.425  0.0000E+00  0.8000E+01
     -7.286  0.0000E+00  0.8000E+01
     -7.147  0.0000E+00  0.8000E+01
     -7.008  0.0000E+00  0.8000E+01
     -6.869  0.0000E+00  0.8000E+01
     -6.730 -0.3181E-34  0.8000E+01
     -6.591 -0.1835E-24  0.8000E+01
     -6.452 -0.2143E-16  0.8000E+01
     -6.313 -0.4747E-10  0.8000E+01
     -6.174 -0.2007E-05  0.8000E+01
     -6.035 -0.1257E-02  0.8000E+01
     -5.896  0.1482E-01  0.8002E+01
     -5.757  0.5386E-01  0.8009E+01
     -5.618  0.8963E+00  0.8134E+01
     -5.479  0.6515E+00  0.8225E+01
     -5.340  0.5025E+00  0.8294E+01
     -5.201  0.1855E+01  0.8552E+01
     -5.062  0.1562E+01  0.8769E+01
     -4.923  0.2058E+01  0.9056E+01
     -4.784  0.2898E+01  0.9458E+01
     -4.645  0.1373E+01  0.9649E+01
     -4.506  0.5170E+01  0.1037E+02
     -4.367  0.5406E+01  0.1112E+02
     -4.228  0.3638E+01  0.1163E+02
     -4.089  0.5335E+01  0.1237E+02
     -3.950  0.3252E+01  0.1282E+02
     -3.811  0.2116E+01  0.1311E+02
     -3.672  0.3648E+01  0.1362E+02
     -3.533  0.2331E+01  0.1394E+02
     -3.394  0.5016E+00  0.1401E+02
     -3.255  0.1391E+01  0.1421E+02
     -3.116  0.1304E+01  0.1439E+02
     -2.977  0.2925E+01  0.1480E+02
     -2.838  0.2939E+01  0.1520E+02
     -2.699  0.3092E+00  0.1525E+02
     -2.560  0.1127E+01  0.1540E+02
     -2.421  0.3840E+01  0.1594E+02
     -2.282  0.1750E+01  0.1618E+02
     -2.143  0.2705E+01  0.1656E+02
     -2.004  0.2423E+01  0.1689E+02
     -1.865  0.1458E+01  0.1710E+02
     -1.726  0.1958E+01  0.1737E+02
     -1.587  0.2115E+01  0.1766E+02
     -1.448  0.1862E+01  0.1792E+02
     -1.309  0.3319E+01  0.1838E+02
     -1.170  0.2955E+01  0.1879E+02
     -1.031  0.1688E+01  0.1903E+02
     -0.892  0.3941E+01  0.1958E+02
     -0.753  0.3590E+01  0.2007E+02
     -0.614  0.1981E+01  0.2035E+02
     -0.475  0.4840E+01  0.2102E+02
     -0.336  0.4977E+01  0.2171E+02
     -0.197  0.3471E+01  0.2220E+02
     -0.058  0.5012E+01  0.2289E+02
      0.081  0.4891E+01  0.2357E+02
      0.220  0.4037E+01  0.2413E+02
      0.359  0.3404E+01  0.2461E+02
      0.498  0.3529E+01  0.2510E+02
      0.637  0.4920E+01  0.2578E+02
      0.776  0.4063E+01  0.2635E+02
      0.915  0.4567E+01  0.2698E+02
      1.054  0.4625E+01  0.2762E+02
      1.193  0.4465E+01  0.2825E+02
      1.332  0.2903E+01  0.2865E+02
      1.471  0.4068E+01  0.2921E+02
      1.610  0.5135E+01  0.2993E+02
      1.749  0.3548E+01  0.3042E+02
      1.888  0.1992E+01  0.3070E+02
      2.027  0.1621E+01  0.3092E+02
      2.166  0.3461E+01  0.3140E+02
      2.305  0.6008E+00  0.3149E+02
      2.444  0.2081E+01  0.3178E+02
      2.583  0.1154E+01  0.3194E+02
      2.722  0.4002E+00  0.3199E+02
      2.861  0.5005E-01  0.3200E+02
      3.000 -0.4567E-02  0.3200E+02
      3.139 -0.9837E-05  0.3200E+02
      3.278 -0.3817E-09  0.3200E+02
      3.417 -0.2808E-15  0.3200E+02
      3.556  0.0000E+00  0.3200E+02
      3.695  0.0000E+00  0.3200E+02
      3.834  0.0000E+00  0.3200E+02
      3.973  0.0000E+00  0.3200E+02
      4.112  0.0000E+00  0.3200E+02
      4.251  0.0000E+00  0.3200E+02
      4.390  0.0000E+00  0.3200E+02
      4.529  0.0000E+00  0.3200E+02
      4.668  0.0000E+00  0.3200E+02
      4.807  0.0000E+00  0.3200E+02
      4.946  0.0000E+00  0.3200E+02
      5.085  0.0000E+00  0.3200E+02
      5.224  0.0000E+00  0.3200E+02
      5.363  0.0000E+00  0.3200E+02
      5.502  0.0000E+00  0.3200E+02
      5.641  0.0000E+00  0.3200E+02
      5.780  0.0000E+00  0.3200E+02
      5.919  0.0000E+00  0.3200E+02
      6.058  0.0000E+00  0.3200E+02
      6.197  0.0000E+00  0.3200E+02
      6.336  0.0000E+00  0.3200E+02
      6.475  0.0000E+00  0.3200E+02
      6.614  0.0000E+00  0.3200E+02
      6.753  0.0000E+00  0.3200E+02
      6.892  0.0000E+00  0.3200E+02
      7.031  0.0000E+00  0.3200E+02
      7.170  0.0000E+00  0.3200E+02
      7.309  0.0000E+00  0.3200E+02
      7.448  0.0000E+00  0.3200E+02
      7.588  0.0000E+00  0.3200E+02
      7.727  0.0000E+00  0.3200E+02
      7.866  0.0000E+00  0.3200E+02
      8.005  0.0000E+00  0.3200E+02
      8.144  0.0000E+00  0.3200E+02
      8.283  0.0000E+00  0.3200E+02
      8.422  0.0000E+00  0.3200E+02
      8.561  0.0000E+00  0.3200E+02
      8.700  0.0000E+00  0.3200E+02
      8.839  0.0000E+00  0.3200E+02
      8.978  0.0000E+00  0.3200E+02
      9.117  0.0000E+00  0.3200E+02
      9.256  0.0000E+00  0.3200E+02
      9.395  0.0000E+00  0.3200E+02
      9.534  0.0000E+00  0.3200E+02
      9.673  0.0000E+00  0.3200E+02
      9.812  0.0000E+00  0.3200E+02
      9.951 -0.1194E-38  0.3200E+02
     10.090 -0.3183E-28  0.3200E+02
     10.229 -0.1725E-19  0.3200E+02
     10.368 -0.1806E-12  0.3200E+02
     10.507 -0.3701E-07  0.3200E+02
     10.646 -0.1287E-03  0.3200E+02
     10.785 -0.2349E-02  0.3200E+02
     10.924  0.6538E-01  0.3201E+02
     11.063  0.4748E-01  0.3202E+02
     11.202  0.1455E+00  0.3204E+02
     11.341  0.5574E+00  0.3211E+02
     11.480  0.8920E+00  0.3224E+02
     11.619  0.8596E+00  0.3236E+02
     11.758  0.4092E-01  0.3236E+02
     11.897  0.7086E+00  0.3246E+02
     12.036  0.2496E+01  0.3281E+02
     12.175  0.2466E+01  0.3315E+02
     12.314  0.7039E+00  0.3325E+02
     12.453  0.4389E+00  0.3331E+02
     12.592  0.2284E+01  0.3363E+02
     12.731  0.2460E+01  0.3397E+02
     12.870  0.2581E+01  0.3433E+02
     13.009  0.9544E+00  0.3446E+02
     13.148  0.2550E+01  0.3481E+02
     13.287  0.5592E+01  0.3559E+02
     13.426  0.1961E+01  0.3586E+02
     13.565  0.1705E+01  0.3610E+02
     13.704  0.2005E+01  0.3638E+02
     13.843  0.5588E+01  0.3716E+02
     13.982  0.5508E+01  0.3792E+02
     14.121  0.7398E+01  0.3895E+02
     14.260  0.5414E+01  0.3970E+02
     14.399  0.4911E+01  0.4039E+02
     14.538  0.4120E+01  0.4096E+02
     14.677  0.3405E+01  0.4143E+02
     14.816  0.4681E+01  0.4208E+02
     14.955  0.1376E+01  0.4227E+02
     15.094  0.2804E+01  0.4266E+02
     15.233  0.4877E+01  0.4334E+02
     15.372  0.4169E+01  0.4392E+02
     15.511  0.3519E+01  0.4441E+02
     15.650  0.7700E+01  0.4548E+02
     15.789  0.3339E+01  0.4595E+02
     15.928  0.9890E+00  0.4608E+02
     16.067  0.2805E+01  0.4647E+02
     16.206  0.3941E+01  0.4702E+02
     16.345  0.3174E+01  0.4746E+02
     16.484  0.2421E+01  0.4780E+02
     16.623  0.6864E+01  0.4875E+02
     16.762  0.1495E+02  0.5083E+02
     16.901  0.1555E+02  0.5299E+02
     17.040  0.1989E+02  0.5576E+02
     17.179  0.2258E+02  0.5890E+02
     17.318  0.6786E+01  0.5984E+02
     17.457  0.8773E+00  0.5996E+02
     17.596  0.2980E+00  0.6000E+02
     17.735 -0.1185E-01  0.6000E+02
     17.874 -0.7486E-03  0.6000E+02
     18.013 -0.3249E-06  0.6000E+02
     18.152 -0.2482E-11  0.6000E+02
     18.291  0.0000E+00  0.6000E+02
     18.430  0.0000E+00  0.6000E+02
     18.569  0.0000E+00  0.6000E+02
     18.708  0.0000E+00  0.6000E+02
     18.847  0.0000E+00  0.6000E+02
     18.986  0.0000E+00  0.6000E+02
     19.125  0.0000E+00  0.6000E+02
     19.264  0.0000E+00  0.6000E+02
     19.403  0.0000E+00  0.6000E+02
