    4    4    1    1
  0.1615167E+02  0.4012599E-09  0.4012599E-09  0.4012599E-09  0.5000000E-15
  1.000000000000000E-004
  CAR 
 unknown system                          
     48     35     30
 
  0.0000000E+00  0.0000000E+00  0.0000000E+00  0.1953125E-02
      1        -20.403588   1.000000
      2        -17.104175   1.000000
      3        -17.104175   1.000000
      4        -17.104174   1.000000
      5         -5.198556   1.000000
      6         -5.198556   1.000000
      7         -5.198556   1.000000
      8         -0.648355   1.000000
      9         -0.648355   1.000000
     10         -0.648355   1.000000
     11         -0.648355   1.000000
     12         -0.648355   1.000000
     13         -0.648355   1.000000
     14          2.697170   1.000000
     15          2.697170   1.000000
     16          2.697170   1.000000
     17         10.889377   1.000000
     18         10.889377   1.000000
     19         10.889377   1.000000
     20         11.432180   1.000000
     21         11.432180   1.000000
     22         11.432180   1.000000
     23         15.161538   1.000000
     24         16.781294  -0.000617
     25         16.829129  -0.000049
     26         16.829129  -0.000049
     27         16.829129  -0.000049
     28         17.164292  -0.000000
     29         17.164293  -0.000000
     30         17.164293  -0.000000
 
  0.1250000E+00  0.0000000E+00  0.0000000E+00  0.1171875E-01
      1        -20.310204   1.000000
      2        -17.282925   1.000000
      3        -17.098053   1.000000
      4        -17.098052   1.000000
      5         -5.079261   1.000000
      6         -5.079261   1.000000
      7         -4.899251   1.000000
      8         -0.928095   1.000000
      9         -0.928095   1.000000
     10         -0.758550   1.000000
     11         -0.758550   1.000000
     12         -0.549722   1.000000
     13         -0.549722   1.000000
     14          2.314543   1.000000
     15          2.524971   1.000000
     16          2.524971   1.000000
     17         11.107392   1.000000
     18         11.289965   1.000000
     19         11.289965   1.000000
     20         11.529538   1.000000
     21         11.909251   1.000000
     22         11.909251   1.000000
     23         14.919952   1.000000
     24         16.671592  -0.025881
     25         16.874466  -0.000003
     26         16.874466  -0.000003
     27         17.143244  -0.000000
     28         17.143244  -0.000000
     29         17.205434  -0.000000
     30         17.254014  -0.000000
 
  0.2500000E+00  0.0000000E+00  0.0000000E+00  0.1171875E-01
      1        -20.033770   1.000000
      2        -17.753705   1.000000
      3        -17.083483   1.000000
      4        -17.083482   1.000000
      5         -4.726335   1.000000
      6         -4.726335   1.000000
      7         -4.072679   1.000000
      8         -1.635723   1.000000
      9         -1.635723   1.000000
     10         -1.009841   1.000000
     11         -1.009841   1.000000
     12         -0.260377   1.000000
     13         -0.260377   1.000000
     14          1.313619   1.000000
     15          2.064621   1.000000
     16          2.064621   1.000000
     17         11.746845   1.000000
     18         11.817278   1.000000
     19         12.366429   1.000000
     20         12.366429   1.000000
     21         13.164908   1.000000
     22         13.164908   1.000000
     23         14.329358   1.000000
     24         16.160751   1.000003
     25         17.006328  -0.000000
     26         17.006329  -0.000000
     27         17.045632  -0.000000
     28         17.045632  -0.000000
     29         17.328021  -0.000000
     30         17.460431  -0.000000
 
  0.3750000E+00  0.0000000E+00  0.0000000E+00  0.1171875E-01
      1        -19.592466   1.000000
      2        -18.376916   1.000000
      3        -17.068774   1.000000
      4        -17.068774   1.000000
      5         -4.156038   1.000000
      6         -4.156038   1.000000
      7         -2.877620   1.000000
      8         -2.523833   1.000000
      9         -2.523833   1.000000
     10         -1.243258   1.000000
     11         -1.243258   1.000000
     12         -0.026663   1.000000
     13          0.198708   1.000000
     14          0.198708   1.000000
     15          1.442650   1.000000
     16          1.442650   1.000000
     17         12.281216   1.000000
     18         12.752956   1.000000
     19         13.604876   1.000000
     20         13.763886   1.000000
     21         13.763886   1.000000
     22         14.760576   1.000000
     23         14.760576   1.000000
     24         15.232069   1.000000
     25         16.759140  -0.001682
     26         16.759140  -0.001682
     27         16.986439  -0.000000
     28         16.986439  -0.000000
     29         17.205660  -0.000000
     30         17.205664  -0.000000
 
  0.5000000E+00  0.0000000E+00  0.0000000E+00  0.5859375E-02
      1        -19.020462   1.000000
      2        -19.020460   1.000000
      3        -17.062915   1.000000
      4        -17.062914   1.000000
      5         -3.401393   1.000000
      6         -3.401393   1.000000
      7         -3.401393   1.000000
      8         -3.401393   1.000000
      9         -1.478834   1.000000
     10         -1.478834   1.000000
     11         -1.335496   1.000000
     12         -1.335496   1.000000
     13          0.788096   1.000000
     14          0.788096   1.000000
     15          0.788096   1.000000
     16          0.788096   1.000000
     17         12.893606   1.000000
     18         12.893606   1.000000
     19         13.997045   1.000000
     20         13.997045   1.000000
     21         14.629985   1.000000
     22         14.629985   1.000000
     23         16.069982   1.000000
     24         16.069982   1.000000
     25         16.069982   1.000000
     26         16.069982   1.000000
     27         16.547844   0.257181
     28         16.547844   0.257181
     29         17.436515  -0.000000
     30         17.436516  -0.000000
 
  0.1250000E+00  0.1250000E+00  0.0000000E+00  0.2343750E-01
      1        -20.217614   1.000000
      2        -17.269138   1.000000
      3        -17.269138   1.000000
      4        -17.098215   1.000000
      5         -4.960341   1.000000
      6         -4.811534   1.000000
      7         -4.811534   1.000000
      8         -1.496941   1.000000
      9         -0.827510   1.000000
     10         -0.827510   1.000000
     11         -0.634574   1.000000
     12         -0.634574   1.000000
     13         -0.476680   1.000000
     14          1.699966   1.000000
     15          2.344215   1.000000
     16          2.662247   1.000000
     17         11.281582   1.000000
     18         11.496752   1.000000
     19         11.496752   1.000000
     20         12.001485   1.000000
     21         12.001485   1.000000
     22         12.685698   1.000000
     23         14.813588   1.000000
     24         16.657370  -0.031887
     25         16.795443  -0.000307
     26         16.920935  -0.000000
     27         17.128994  -0.000000
     28         17.179941  -0.000000
     29         17.180169  -0.000000
     30         17.213561  -0.000000
 
  0.2500000E+00  0.1250000E+00  0.0000000E+00  0.4687500E-01
      1        -19.945620   1.000000
      2        -17.722065   1.000000
      3        -17.232835   1.000000
      4        -17.101490   1.000000
      5         -4.608498   1.000000
      6         -4.555408   1.000000
      7         -4.076100   1.000000
      8         -2.249926   1.000000
      9         -1.530817   1.000000
     10         -0.812764   1.000000
     11         -0.532180   1.000000
     12         -0.474714   1.000000
     13         -0.270940   1.000000
     14          0.666211   1.000000
     15          1.863031   1.000000
     16          2.392985   1.000000
     17         11.912141   1.000000
     18         12.103374   1.000000
     19         12.272780   1.000000
     20         12.538378   1.000000
     21         13.242645   1.000000
     22         14.145979   1.000000
     23         14.450481   1.000000
     24         16.227609   1.000161
     25         16.871938  -0.000003
     26         17.050747  -0.000000
     27         17.053972  -0.000000
     28         17.054814  -0.000000
     29         17.283314  -0.000000
     30         17.351561  -0.000000
 
  0.3750000E+00  0.1250000E+00  0.0000000E+00  0.4687500E-01
      1        -19.512482   1.000000
      2        -18.325593   1.000000
      3        -17.186326   1.000000
      4        -17.114967   1.000000
      5         -4.149826   1.000000
      6         -4.040099   1.000000
      7         -3.024150   1.000000
      8         -2.977842   1.000000
      9         -2.414427   1.000000
     10         -0.931620   1.000000
     11         -0.684622   1.000000
     12         -0.543428   1.000000
     13         -0.062596   1.000000
     14          0.302929   1.000000
     15          1.217377   1.000000
     16          1.778538   1.000000
     17         12.705458   1.000000
     18         13.056977   1.000000
     19         13.130430   1.000000
     20         13.837404   1.000000
     21         13.883596   1.000000
     22         14.816478   1.000000
     23         15.378492   1.000000
     24         15.634068   1.000000
     25         16.633598  -0.034733
     26         16.783533  -0.000554
     27         17.040019  -0.000000
     28         17.074845  -0.000000
     29         17.076327  -0.000000
     30         17.255096  -0.000000
 
  0.5000000E+00  0.1250000E+00  0.0000000E+00  0.2343750E-01
      1        -18.952882   1.000000
      2        -18.952882   1.000000
      3        -17.143631   1.000000
      4        -17.143631   1.000000
      5         -3.617992   1.000000
      6         -3.617992   1.000000
      7         -3.288212   1.000000
      8         -3.288212   1.000000
      9         -1.807125   1.000000
     10         -1.807125   1.000000
     11         -0.885202   1.000000
     12         -0.885202   1.000000
     13          0.542257   1.000000
     14          0.542257   1.000000
     15          1.023976   1.000000
     16          1.023976   1.000000
     17         13.264087   1.000000
     18         13.264087   1.000000
     19         14.229665   1.000000
     20         14.229665   1.000000
     21         14.262267   1.000000
     22         14.262267   1.000000
     23         16.106235   1.000000
     24         16.106235   1.000000
     25         16.409241   1.031816
     26         16.409241   1.031816
     27         16.644158  -0.035225
     28         16.644158  -0.035225
     29         17.239921  -0.000000
     30         17.240231  -0.000000
 
  0.2500000E+00  0.2500000E+00  0.0000000E+00  0.2343750E-01
      1        -19.687978   1.000000
      2        -17.634285   1.000000
      3        -17.634285   1.000000
      4        -17.156535   1.000000
      5         -4.260010   1.000000
      6         -4.078101   1.000000
      7         -4.078101   1.000000
      8         -2.995376   1.000000
      9         -1.222170   1.000000
     10         -1.222170   1.000000
     11         -0.380031   1.000000
     12         -0.257163   1.000000
     13         -0.257163   1.000000
     14          0.008416   1.000000
     15          1.332512   1.000000
     16          2.504270   1.000000
     17         11.920428   1.000000
     18         13.040031   1.000000
     19         13.040031   1.000000
     20         13.467440   1.000000
     21         13.467440   1.000000
     22         14.627534   1.000000
     23         15.560218   1.000000
     24         16.125717   1.000000
     25         16.751329  -0.002330
     26         17.025484  -0.000000
     27         17.025537  -0.000000
     28         17.039552  -0.000000
     29         17.042163  -0.000000
     30         17.132833  -0.000000
 
  0.3750000E+00  0.2500000E+00  0.0000000E+00  0.4687500E-01
      1        -19.279601   1.000000
      2        -18.179668   1.000000
      3        -17.508868   1.000000
      4        -17.249018   1.000000
      5         -4.041213   1.000000
      6         -3.697427   1.000000
      7         -3.555777   1.000000
      8         -3.365719   1.000000
      9         -2.091816   1.000000
     10         -1.463493   1.000000
     11         -0.729191   1.000000
     12         -0.152719   1.000000
     13          0.140552   1.000000
     14          0.546888   1.000000
     15          0.632202   1.000000
     16          2.143378   1.000000
     17         12.672314   1.000000
     18         13.811063   1.000000
     19         13.816356   1.000000
     20         14.036823   1.000000
     21         14.546850   1.000000
     22         14.972665   1.000000
     23         15.574010   1.000000
     24         16.483788   0.769401
     25         16.504737   0.608561
     26         16.700371  -0.013420
     27         16.854390  -0.000010
     28         16.890718  -0.000001
     29         17.135597  -0.000000
     30         17.166952  -0.000000
 
  0.5000000E+00  0.2500000E+00  0.0000000E+00  0.2343750E-01
      1        -18.757108   1.000000
      2        -18.757108   1.000000
      3        -17.372037   1.000000
      4        -17.372037   1.000000
      5         -3.892483   1.000000
      6         -3.892483   1.000000
      7         -2.954114   1.000000
      8         -2.954114   1.000000
      9         -2.478423   1.000000
     10         -2.478423   1.000000
     11         -0.089546   1.000000
     12         -0.089546   1.000000
     13          0.023535   1.000000
     14          0.023536   1.000000
     15          1.420443   1.000000
     16          1.420443   1.000000
     17         13.782870   1.000000
     18         13.782870   1.000000
     19         14.212175   1.000000
     20         14.212175   1.000000
     21         14.735809   1.000000
     22         14.735809   1.000000
     23         16.207019   1.000051
     24         16.207019   1.000051
     25         16.614553  -0.021565
     26         16.614553  -0.021565
     27         16.744449  -0.003068
     28         16.744449  -0.003068
     29         17.072592  -0.000000
     30         17.073291  -0.000000
 
  0.3750000E+00  0.3750000E+00  0.0000000E+00  0.2343750E-01
      1        -18.914727   1.000000
      2        -17.961605   1.000000
      3        -17.961605   1.000000
      4        -17.455812   1.000000
      5         -3.885258   1.000000
      6         -3.717351   1.000000
      7         -3.717351   1.000000
      8         -3.144946   1.000000
      9         -2.377272   1.000000
     10         -1.574464   1.000000
     11         -1.574464   1.000000
     12         -0.127199   1.000000
     13          0.713522   1.000000
     14          0.797274   1.000000
     15          0.797274   1.000000
     16          2.118270   1.000000
     17         12.874029   1.000000
     18         14.322159   1.000000
     19         14.322159   1.000000
     20         15.164657   1.000000
     21         15.186368   1.000000
     22         15.186368   1.000000
     23         15.213687   1.000000
     24         16.469731   0.858654
     25         16.469731   0.858654
     26         16.776174  -0.000786
     27         16.864359  -0.000005
     28         16.888508  -0.000001
     29         16.935153  -0.000000
     30         16.952666  -0.000000
 
  0.5000000E+00  0.3750000E+00  0.0000000E+00  0.2343750E-01
      1        -18.456224   1.000000
      2        -18.456224   1.000000
      3        -17.706410   1.000000
      4        -17.706410   1.000000
      5         -3.924408   1.000000
      6         -3.924408   1.000000
      7         -3.152023   1.000000
      8         -3.152023   1.000000
      9         -2.416586   1.000000
     10         -2.416586   1.000000
     11         -0.898396   1.000000
     12         -0.898396   1.000000
     13          0.905816   1.000000
     14          0.905816   1.000000
     15          1.632162   1.000000
     16          1.632162   1.000000
     17         13.661868   1.000000
     18         13.661868   1.000000
     19         14.702859   1.000000
     20         14.702859   1.000000
     21         15.341124   1.000000
     22         15.341124   1.000000
     23         16.330926   1.011972
     24         16.330926   1.011972
     25         16.624866  -0.031064
     26         16.624866  -0.031065
     27         16.749692  -0.002490
     28         16.749693  -0.002490
     29         17.040692  -0.000000
     30         17.058788  -0.000000
 
  0.5000000E+00  0.5000000E+00  0.0000000E+00  0.5859375E-02
      1        -18.088380   1.000000
      2        -18.088379   1.000000
      3        -18.088378   1.000000
      4        -18.088374   1.000000
      5         -3.664187   1.000000
      6         -3.664187   1.000000
      7         -3.664187   1.000000
      8         -3.664186   1.000000
      9         -1.710430   1.000000
     10         -1.710430   1.000000
     11         -1.710430   1.000000
     12         -1.710430   1.000000
     13          1.480187   1.000000
     14          1.480187   1.000000
     15          1.480187   1.000000
     16          1.480187   1.000000
     17         14.043550   1.000000
     18         14.043550   1.000000
     19         14.043550   1.000000
     20         14.043550   1.000000
     21         16.182602   1.000011
     22         16.182602   1.000011
     23         16.182602   1.000011
     24         16.182602   1.000011
     25         16.847051  -0.000016
     26         16.847058  -0.000016
     27         16.855451  -0.000010
     28         16.865335  -0.000005
     29         16.884709  -0.000001
     30         16.884717  -0.000001
 
  0.1250000E+00  0.1250000E+00  0.1250000E+00  0.1562500E-01
      1        -20.126426   1.000000
      2        -17.261318   1.000000
      3        -17.261318   1.000000
      4        -17.261317   1.000000
      5         -4.734100   1.000000
      6         -4.734100   1.000000
      7         -4.734100   1.000000
      8         -1.332787   1.000000
      9         -1.332787   1.000000
     10         -1.332787   1.000000
     11         -0.382326   1.000000
     12         -0.382326   1.000000
     13         -0.382326   1.000000
     14          1.103542   1.000000
     15          2.505041   1.000000
     16          2.505041   1.000000
     17         11.462182   1.000000
     18         11.462182   1.000000
     19         11.462182   1.000000
     20         12.789316   1.000000
     21         12.789316   1.000000
     22         12.789316   1.000000
     23         14.679279   1.000000
     24         16.646321  -0.034920
     25         16.838397  -0.000028
     26         16.838397  -0.000028
     27         17.162845  -0.000000
     28         17.162870  -0.000000
     29         17.162999  -0.000000
     30         17.507597  -0.000000
 
  0.2500000E+00  0.1250000E+00  0.1250000E+00  0.4687500E-01
      1        -19.859526   1.000000
      2        -17.695565   1.000000
      3        -17.242266   1.000000
      4        -17.242266   1.000000
      5         -4.518341   1.000000
      6         -4.518341   1.000000
      7         -4.115832   1.000000
      8         -1.992465   1.000000
      9         -1.992465   1.000000
     10         -0.852587   1.000000
     11         -0.362143   1.000000
     12         -0.362143   1.000000
     13         -0.106013   1.000000
     14          0.060614   1.000000
     15          2.081395   1.000000
     16          2.321764   1.000000
     17         11.973936   1.000000
     18         12.074231   1.000000
     19         12.074231   1.000000
     20         13.109128   1.000000
     21         14.219043   1.000000
     22         14.219043   1.000000
     23         14.412297   1.000000
     24         16.278492   1.001851
     25         16.876736  -0.000002
     26         16.964079  -0.000000
     27         17.065406  -0.000000
     28         17.065406  -0.000000
     29         17.198647  -0.000000
     30         17.256123  -0.000000
 
  0.3750000E+00  0.1250000E+00  0.1250000E+00  0.4687500E-01
      1        -19.434915   1.000000
      2        -18.278359   1.000000
      3        -17.223083   1.000000
      4        -17.223082   1.000000
      5         -4.229681   1.000000
      6         -4.229681   1.000000
      7         -3.233653   1.000000
      8         -2.556682   1.000000
      9         -2.556682   1.000000
     10         -1.077992   1.000000
     11         -0.504239   1.000000
     12         -0.504239   1.000000
     13         -0.105183   1.000000
     14          0.330888   1.000000
     15          1.503189   1.000000
     16          1.685099   1.000000
     17         12.696370   1.000000
     18         13.246796   1.000000
     19         13.246796   1.000000
     20         13.688121   1.000000
     21         14.001010   1.000000
     22         15.533687   1.000000
     23         15.629532   1.000000
     24         15.629532   1.000000
     25         16.663341  -0.029537
     26         16.663341  -0.029537
     27         16.955820  -0.000000
     28         17.115385  -0.000000
     29         17.117009  -0.000000
     30         17.150502  -0.000000
 
  0.5000000E+00  0.1250000E+00  0.1250000E+00  0.2343750E-01
      1        -18.888296   1.000000
      2        -18.888296   1.000000
      3        -17.215253   1.000000
      4        -17.215253   1.000000
      5         -4.061466   1.000000
      6         -4.061466   1.000000
      7         -2.813541   1.000000
      8         -2.813541   1.000000
      9         -2.197807   1.000000
     10         -2.197807   1.000000
     11         -0.585764   1.000000
     12         -0.585764   1.000000
     13          0.800010   1.000000
     14          0.800010   1.000000
     15          0.888550   1.000000
     16          0.888550   1.000000
     17         13.413328   1.000000
     18         13.413328   1.000000
     19         14.102756   1.000000
     20         14.102756   1.000000
     21         14.563933   1.000000
     22         14.563933   1.000000
     23         15.951455   1.000000
     24         15.951455   1.000000
     25         16.652114  -0.033596
     26         16.652114  -0.033596
     27         16.756176  -0.001907
     28         16.756176  -0.001907
     29         17.131616  -0.000000
     30         17.131842  -0.000000
 
  0.2500000E+00  0.2500000E+00  0.1250000E+00  0.4687500E-01
      1        -19.607477   1.000000
      2        -17.622907   1.000000
      3        -17.622906   1.000000
      4        -17.273536   1.000000
      5         -4.450729   1.000000
      6         -4.225327   1.000000
      7         -4.225327   1.000000
      8         -2.459855   1.000000
      9         -1.319982   1.000000
     10         -1.319982   1.000000
     11         -0.982205   1.000000
     12         -0.019616   1.000000
     13         -0.019616   1.000000
     14          0.088644   1.000000
     15          1.724990   1.000000
     16          2.389853   1.000000
     17         12.082494   1.000000
     18         12.541951   1.000000
     19         12.541951   1.000000
     20         14.387203   1.000000
     21         14.428695   1.000000
     22         14.428695   1.000000
     23         15.593932   1.000000
     24         16.170948   1.000005
     25         16.781820  -0.000602
     26         17.032758  -0.000000
     27         17.047010  -0.000000
     28         17.049639  -0.000000
     29         17.066335  -0.000000
     30         17.196286  -0.000000
 
  0.3750000E+00  0.2500000E+00  0.1250000E+00  0.9375000E-01
      1        -19.209053   1.000000
      2        -18.144808   1.000000
      3        -17.522443   1.000000
      4        -17.332059   1.000000
      5         -4.433660   1.000000
      6         -4.355938   1.000000
      7         -3.703993   1.000000
      8         -2.537346   1.000000
      9         -2.032160   1.000000
     10         -1.801534   1.000000
     11         -0.464163   1.000000
     12          0.035681   1.000000
     13          0.227978   1.000000
     14          0.565489   1.000000
     15          1.097463   1.000000
     16          2.045900   1.000000
     17         12.816442   1.000000
     18         13.241276   1.000000
     19         13.582614   1.000000
     20         14.351509   1.000000
     21         14.745635   1.000000
     22         15.561395   1.000000
     23         15.667122   1.000000
     24         16.516212   0.512457
     25         16.520437   0.476719
     26         16.752673  -0.002205
     27         16.757105  -0.001833
     28         16.870782  -0.000004
     29         17.035734  -0.000000
     30         17.196294  -0.000000
 
  0.5000000E+00  0.2500000E+00  0.1250000E+00  0.4687500E-01
      1        -18.702052   1.000000
      2        -18.702050   1.000000
      3        -17.418604   1.000000
      4        -17.418602   1.000000
      5         -4.431263   1.000000
      6         -4.431263   1.000000
      7         -2.961219   1.000000
      8         -2.961219   1.000000
      9         -2.253651   1.000000
     10         -2.253651   1.000000
     11          0.148668   1.000000
     12          0.148668   1.000000
     13          0.360111   1.000000
     14          0.360111   1.000000
     15          1.338143   1.000000
     16          1.338143   1.000000
     17         13.823313   1.000000
     18         13.823313   1.000000
     19         13.969788   1.000000
     20         13.969788   1.000000
     21         15.141699   1.000000
     22         15.141699   1.000000
     23         15.944361   1.000000
     24         15.944361   1.000000
     25         16.714479  -0.008855
     26         16.714479  -0.008855
     27         16.726705  -0.005909
     28         16.726705  -0.005909
     29         17.097156  -0.000000
     30         17.116371  -0.000000
 
  0.3750000E+00  0.3750000E+00  0.1250000E+00  0.4687500E-01
      1        -18.857154   1.000000
      2        -17.947655   1.000000
      3        -17.947655   1.000000
      4        -17.505140   1.000000
      5         -4.575521   1.000000
      6         -4.181666   1.000000
      7         -4.181666   1.000000
      8         -2.955290   1.000000
      9         -2.200079   1.000000
     10         -1.040048   1.000000
     11         -1.040048   1.000000
     12          0.438335   1.000000
     13          0.766157   1.000000
     14          0.832789   1.000000
     15          0.832789   1.000000
     16          2.065115   1.000000
     17         13.021208   1.000000
     18         14.093478   1.000000
     19         14.093478   1.000000
     20         14.790927   1.000000
     21         15.301704   1.000000
     22         15.369836   1.000000
     23         15.369836   1.000000
     24         16.549898   0.242432
     25         16.549900   0.242422
     26         16.707085  -0.011089
     27         16.854051  -0.000011
     28         16.955983  -0.000000
     29         16.982985  -0.000000
     30         16.991953  -0.000000
 
  0.5000000E+00  0.3750000E+00  0.1250000E+00  0.4687500E-01
      1        -18.417462   1.000000
      2        -18.417462   1.000000
      3        -17.721402   1.000000
      4        -17.721401   1.000000
      5         -4.498359   1.000000
      6         -4.498359   1.000000
      7         -3.698764   1.000000
      8         -3.698764   1.000000
      9         -1.661980   1.000000
     10         -1.661980   1.000000
     11         -0.294777   1.000000
     12         -0.294777   1.000000
     13          0.948733   1.000000
     14          0.948733   1.000000
     15          1.608151   1.000000
     16          1.608151   1.000000
     17         13.779105   1.000000
     18         13.779105   1.000000
     19         14.692688   1.000000
     20         14.692688   1.000000
     21         15.133826   1.000000
     22         15.133826   1.000000
     23         16.019280   1.000000
     24         16.019280   1.000000
     25         16.731787  -0.004938
     26         16.731788  -0.004937
     27         16.824490  -0.000064
     28         16.824508  -0.000063
     29         17.047506  -0.000000
     30         17.051734  -0.000000
 
  0.5000000E+00  0.5000000E+00  0.1250000E+00  0.1171875E-01
      1        -18.073300   1.000000
      2        -18.073300   1.000000
      3        -18.073300   1.000000
      4        -18.073299   1.000000
      5         -4.240715   1.000000
      6         -4.240715   1.000000
      7         -4.240715   1.000000
      8         -4.240715   1.000000
      9         -0.998475   1.000000
     10         -0.998475   1.000000
     11         -0.998475   1.000000
     12         -0.998475   1.000000
     13          1.487720   1.000000
     14          1.487720   1.000000
     15          1.487720   1.000000
     16          1.487720   1.000000
     17         14.167545   1.000000
     18         14.167545   1.000000
     19         14.167545   1.000000
     20         14.167545   1.000000
     21         15.791958   1.000000
     22         15.791958   1.000000
     23         15.791958   1.000000
     24         15.791958   1.000000
     25         16.901547  -0.000000
     26         16.901611  -0.000000
     27         16.901915  -0.000000
     28         16.907369  -0.000000
     29         16.947878  -0.000000
     30         16.948416  -0.000000
 
  0.2500000E+00  0.2500000E+00  0.2500000E+00  0.1562500E-01
      1        -19.372679   1.000000
      2        -17.595201   1.000000
      3        -17.595201   1.000000
      4        -17.595201   1.000000
      5         -4.561441   1.000000
      6         -4.561441   1.000000
      7         -4.561441   1.000000
      8         -2.021623   1.000000
      9         -1.370202   1.000000
     10         -1.370202   1.000000
     11         -1.370202   1.000000