 vasp.6.3.0 20Jan22 (build Mar 25 2022 12:20:17) complex                        
  
 executed on             LinuxIFC date 2023.08.20  13:25:47
 running on   96 total cores
 distrk:  each k-point on   96 cores,    1 groups
 distr:  one band on NCORE=  16 cores,    6 groups


--------------------------------------------------------------------------------------------------------


 INCAR:
   ALGO = normal
   EDIFF = 1E-5
   KSPACING = 0.20000
   LASPH = .TRUE.
   ENCUT = 520
   ISIF = 2
   ISMEAR = 1
   LREAL = Auto
   LWAVE = False
   LCHARG = .FALSE.
   NELM = 400
   NSW = 0
   PREC = Accurate
   SIGMA = 0.1
   NPAR = 6

 POTCAR:    PAW_PBE Ce 23Dec2003                  
 POTCAR:    PAW_PBE Ce 23Dec2003                  
   SHA256 =  00bd3101dba980d69718c826e9aff48526de61f93249f80fb0d1cde9afca69b7 Ce/POTCAR             
   COPYR  = (c) Copyright 23Dec2003 Georg Kresse                                                    
   COPYR  = This file is part of the software VASP. Any use, copying, and all other rights are regul
   COPYR  = If you do not have a valid VASP license, you may not use, copy or distribute this file. 
   VRHFIN =Ce : [core= Kr 4d10]                                                                     
   LEXCH  = PE                                                                                      
   EATOM  =  1063.0861 eV,   78.1346 Ry                                                             
                                                                                                    
   TITEL  = PAW_PBE Ce 23Dec2003                                                                    
   LULTRA =        F    use ultrasoft PP ?                                                          
   IUNSCR =        1    unscreen: 0-lin 1-nonlin 2-no                                               
   RPACOR =    1.800    partial core radius                                                         
   POMASS =  140.115; ZVAL   =   12.000    mass and valenz                                          
   RCORE  =    2.700    outmost cutoff radius                                                       
   RWIGS  =    2.500; RWIGS  =    1.323    wigner-seitz radius (au A)                               
   ENMAX  =  273.042; ENMIN  =  204.781 eV                                                          
   RCLOC  =    1.810    cutoff for local pot                                                        
   LCOR   =        T    correct aug charges                                                         
   LPAW   =        T    paw PP                                                                      
   EAUG   =  580.196                                                                                
   DEXC   =    0.000                                                                                
   RMAX   =    2.749    core radius for proj-oper                                                   
   RAUG   =    1.300    factor for augmentation sphere                                              
   RDEP   =    2.810    radius for radial grids                                                     
   RDEPT  =    2.162    core radius for aug-charge                                                  
                                                                                                    
   Atomic configuration                                                                             
   14 entries                                                                                       
     n  l   j            E        occ.                                                              
     1  0  0.50    -40258.9816   2.0000                                                             
     2  0  0.50     -6445.4884   2.0000                                                             
     2  1  1.50     -5771.7470   6.0000                                                             
     3  0  0.50     -1387.9739   2.0000                                                             
     3  1  1.50     -1173.8158   6.0000                                                             
     3  2  2.50      -869.9108  10.0000                                                             
     4  0  0.50      -280.8706   2.0000                                                             
     4  1  1.50      -210.9815   6.0000                                                             
     4  2  2.50      -110.4558  10.0000                                                             
     5  0  0.50       -40.5819   2.0000                                                             
     6  0  0.50        -3.7444   2.0000                                                             
     5  1  1.50       -23.2188   6.0000                                                             
     5  2  2.50        -3.0598   1.0000                                                             
     4  3  2.50        -5.3970   1.0000                                                             
   Description                                                                                      
     l       E           TYP  RCUT    TYP  RCUT                                                     
     0    -40.5819164     23  1.500                                                                 
     0     -3.7443793     23  2.300                                                                 
     1    -23.2188445     23  2.000                                                                 
     1     40.8174780     23  2.300                                                                 
     2     -3.0597556     23  2.500                                                                 
     2     13.6058260     23  2.500                                                                 
     3     -5.3970469     23  2.700                                                                 
     3     -5.8505052     23  2.700                                                                 
  local pseudopotential read in
  partial core-charges read in
  partial kinetic energy density read in
  atomic valenz-charges read in
  non local Contribution for L=           0  read in
    real space projection operators read in
  non local Contribution for L=           0  read in
    real space projection operators read in
  non local Contribution for L=           1  read in
    real space projection operators read in
  non local Contribution for L=           1  read in
    real space projection operators read in
  non local Contribution for L=           2  read in
    real space projection operators read in
  non local Contribution for L=           2  read in
    real space projection operators read in
  non local Contribution for L=           3  read in
    real space projection operators read in
  non local Contribution for L=           3  read in
    real space projection operators read in
    PAW grid and wavefunctions read in
 
   number of l-projection  operators is LMAX  =           8
   number of lm-projection operators is LMMAX =          32
 
 -----------------------------------------------------------------------------
|                                                                             |
|               ----> ADVICE to this user running VASP <----                  |
|                                                                             |
|     You have a (more or less) 'small supercell' and for smaller cells       |
|     it is recommended to use the reciprocal-space projection scheme!        |
|     The real-space optimization is not efficient for small cells and it     |
|     is also less accurate ...                                               |
|     Therefore, set LREAL=.FALSE. in the INCAR file.                         |
|                                                                             |
 -----------------------------------------------------------------------------

 Optimization of the real space projectors (new method)

 maximal supplied QI-value         = 13.98
 optimisation between [QCUT,QGAM] = [ 11.61, 23.35] = [ 37.72,152.72] Ry 
 Optimized for a Real-space Cutoff    1.58 Angstroem

   l    n(q)    QCUT    max X(q) W(low)/X(q) W(high)/X(q)  e(spline) 
   0     11    11.607     8.553    0.18E-04    0.38E-05    0.11E-06
   0     11    11.607     8.106    0.25E-04    0.72E-05    0.23E-06
   1     11    11.607     4.160    0.64E-06    0.35E-05    0.82E-07
   1     11    11.607     3.597    0.15E-04    0.58E-05    0.16E-06
   2     10    11.607     8.183    0.53E-04    0.30E-03    0.10E-05
   2     10    11.607     6.077    0.37E-04    0.21E-03    0.69E-06
   3     10    11.607   116.013    0.17E-03    0.16E-04    0.46E-06
   3     10    11.607   108.937    0.17E-03    0.15E-04    0.47E-06
  PAW_PBE Ce 23Dec2003                  :
 energy of atom  1       EATOM=-1063.0861
 kinetic energy error for atom=    0.0133 (will be added to EATOM!!)
 
 
 POSCAR: Ce4
  positions in direct lattice
  velocities in cartesian coordinates
 exchange correlation table for  LEXCH =        8
   RHO(1)=    0.500       N(1)  =     2000
   RHO(2)=  100.500       N(2)  =     4000
 


--------------------------------------------------------------------------------------------------------


 ion  position               nearest neighbor table
   1  0.000  0.000  0.000-   2 2.84   3 2.84   4 2.84   2 2.84   3 2.84   2 2.84   4 2.84   2 2.84
                             3 2.84   4 2.84   3 2.84   4 2.84
   2  0.000  0.500  0.500-   1 2.84   3 2.84   4 2.84   1 2.84   4 2.84   1 2.84   3 2.84   1 2.84
                             3 2.84   4 2.84   4 2.84   3 2.84
   3  0.500  0.000  0.500-   1 2.84   2 2.84   4 2.84   1 2.84   4 2.84   2 2.84   4 2.84   4 2.84
                             1 2.84   2 2.84   1 2.84   2 2.84
   4  0.500  0.500  0.000-   1 2.84   2 2.84   3 2.84   2 2.84   3 2.84   1 2.84   3 2.84   3 2.84
                             1 2.84   2 2.84   2 2.84   1 2.84
 
  LATTYP: Found a simple cubic cell.
 ALAT       =     4.0125994295
  
  Lattice vectors:
  
 A1 = (   4.0125994295,   0.0000000000,   0.0000000000)
 A2 = (   0.0000000000,   4.0125994295,   0.0000000000)
 A3 = (   0.0000000000,   0.0000000000,   4.0125994295)


Analysis of symmetry for initial positions (statically):
=====================================================================
 Subroutine PRICEL returns following result:
 
  LATTYP: Found a face centered cubic cell.
 ALAT       =     4.0125994295
  
  Lattice vectors:
  
 A1 = (   2.0062997148,  -2.0062997148,   0.0000000000)
 A2 = (   2.0062997148,   0.0000000000,   2.0062997148)
 A3 = (   0.0000000000,  -2.0062997148,   2.0062997148)
 
   4 primitive cells build up your supercell.
 

 Routine SETGRP: Setting up the symmetry group for a 
 simple cubic supercell.


 Subroutine GETGRP returns: Found 48 space group operations
 (whereof 48 operations were pure point group operations)
 out of a pool of 48 trial point group operations.


The static configuration has the point symmetry O_h .


Analysis of symmetry for dynamics (positions and initial velocities):
=====================================================================
 Subroutine PRICEL returns following result:
 
  LATTYP: Found a face centered cubic cell.
 ALAT       =     4.0125994295
  
  Lattice vectors:
  
 A1 = (   2.0062997148,  -2.0062997148,   0.0000000000)
 A2 = (   2.0062997148,   0.0000000000,   2.0062997148)
 A3 = (   0.0000000000,  -2.0062997148,   2.0062997148)
 
   4 primitive cells build up your supercell.
 

 Routine SETGRP: Setting up the symmetry group for a 
 simple cubic supercell.


 Subroutine GETGRP returns: Found 48 space group operations
 (whereof 48 operations were pure point group operations)
 out of a pool of 48 trial point group operations.


The dynamic configuration has the point symmetry O_h .


 Subroutine INISYM returns: Found 48 space group operations
 (whereof 48 operations are pure point group operations),
 and found     4 'primitive' translations


----------------------------------------------------------------------------------------

                                     Primitive cell                                     

  volume of cell :      16.1517

  direct lattice vectors                    reciprocal lattice vectors
     2.006299715 -2.006299715  0.000000000     0.249215008 -0.249215008 -0.249215008
     2.006299715  0.000000000  2.006299715     0.249215008  0.249215008  0.249215008
     0.000000000 -2.006299715  2.006299715    -0.249215008 -0.249215008  0.249215008

  length of vectors
     2.837336267  2.837336267  2.837336267     0.431653056  0.431653056  0.431653056

  position of ions in fractional coordinates (direct lattice)
     0.000000000  0.000000000  0.000000000

  ion indices of the primitive-cell ions
   primitive index   ion index
                 1           1

----------------------------------------------------------------------------------------

 
 -----------------------------------------------------------------------------
|                                                                             |
|           W    W    AA    RRRRR   N    N  II  N    N   GGGG   !!!           |
|           W    W   A  A   R    R  NN   N  II  NN   N  G    G  !!!           |
|           W    W  A    A  R    R  N N  N  II  N N  N  G       !!!           |
|           W WW W  AAAAAA  RRRRR   N  N N  II  N  N N  G  GGG   !            |
|           WW  WW  A    A  R   R   N   NN  II  N   NN  G    G                |
|           W    W  A    A  R    R  N    N  II  N    N   GGGG   !!!           |
|                                                                             |
|     The requested file  could not be found or opened for reading            |
|     k-point information. Automatic k-point generation is used as a          |
|     fallback, which may lead to unwanted results.                           |
|                                                                             |
 -----------------------------------------------------------------------------

 

Automatic generation of k-mesh.
 Grid dimensions derived from KSPACING:
 generate k-points for:    8    8    8

 Generating k-lattice:

  Cartesian coordinates                     Fractional coordinates (reciprocal lattice)
     0.031151876  0.000000000  0.000000000     0.125000000  0.000000000  0.000000000
     0.000000000  0.031151876  0.000000000     0.000000000  0.125000000  0.000000000
     0.000000000  0.000000000  0.031151876     0.000000000  0.000000000  0.125000000

  Length of vectors
     0.031151876  0.031151876  0.031151876

  Shift w.r.t. Gamma in fractional coordinates (k-lattice)
     0.000000000  0.000000000  0.000000000

 
 Subroutine IBZKPT returns following result:
 ===========================================
 
 Found     35 irreducible k-points:
 
 Following reciprocal coordinates:
            Coordinates               Weight
  0.000000  0.000000  0.000000      1.000000
  0.125000  0.000000  0.000000      6.000000
  0.250000  0.000000  0.000000      6.000000
  0.375000  0.000000  0.000000      6.000000
  0.500000  0.000000  0.000000      3.000000
  0.125000  0.125000  0.000000     12.000000
  0.250000  0.125000  0.000000     24.000000
  0.375000  0.125000  0.000000     24.000000
  0.500000  0.125000  0.000000     12.000000
  0.250000  0.250000  0.000000     12.000000
  0.375000  0.250000  0.000000     24.000000
  0.500000  0.250000  0.000000     12.000000
  0.375000  0.375000  0.000000     12.000000
  0.500000  0.375000  0.000000     12.000000
  0.500000  0.500000  0.000000      3.000000
  0.125000  0.125000  0.125000      8.000000
  0.250000  0.125000  0.125000     24.000000
  0.375000  0.125000  0.125000     24.000000
  0.500000  0.125000  0.125000     12.000000
  0.250000  0.250000  0.125000     24.000000
  0.375000  0.250000  0.125000     48.000000
  0.500000  0.250000  0.125000     24.000000
  0.375000  0.375000  0.125000     24.000000
  0.500000  0.375000  0.125000     24.000000
  0.500000  0.500000  0.125000      6.000000
  0.250000  0.250000  0.250000      8.000000
  0.375000  0.250000  0.250000     24.000000
  0.500000  0.250000  0.250000     12.000000
  0.375000  0.375000  0.250000     24.000000
  0.500000  0.375000  0.250000     24.000000
  0.500000  0.500000  0.250000      6.000000
  0.375000  0.375000  0.375000      8.000000
  0.500000  0.375000  0.375000     12.000000
  0.500000  0.500000  0.375000      6.000000
  0.500000  0.500000  0.500000      1.000000
 
 Following cartesian coordinates:
            Coordinates               Weight
  0.000000  0.000000  0.000000      1.000000
  0.026479  0.000000  0.000000      6.000000
  0.052958  0.000000  0.000000      6.000000
  0.079437  0.000000  0.000000      6.000000
  0.105916  0.000000  0.000000      3.000000
  0.026479  0.026479  0.000000     12.000000
  0.052958  0.026479  0.000000     24.000000
  0.079437  0.026479  0.000000     24.000000
  0.105916  0.026479  0.000000     12.000000
  0.052958  0.052958  0.000000     12.000000
  0.079437  0.052958  0.000000     24.000000
  0.105916  0.052958  0.000000     12.000000
  0.079437  0.079437  0.000000     12.000000
  0.105916  0.079437  0.000000     12.000000
  0.105916  0.105916  0.000000      3.000000
  0.026479  0.026479  0.026479      8.000000
  0.052958  0.026479  0.026479     24.000000
  0.079437  0.026479  0.026479     24.000000
  0.105916  0.026479  0.026479     12.000000
  0.052958  0.052958  0.026479     24.000000
  0.079437  0.052958  0.026479     48.000000
  0.105916  0.052958  0.026479     24.000000
  0.079437  0.079437  0.026479     24.000000
  0.105916  0.079437  0.026479     24.000000
  0.105916  0.105916  0.026479      6.000000
  0.052958  0.052958  0.052958      8.000000
  0.079437  0.052958  0.052958     24.000000
  0.105916  0.052958  0.052958     12.000000
  0.079437  0.079437  0.052958     24.000000
  0.105916  0.079437  0.052958     24.000000
  0.105916  0.105916  0.052958      6.000000
  0.079437  0.079437  0.079437      8.000000
  0.105916  0.079437  0.079437     12.000000
  0.105916  0.105916  0.079437      6.000000
  0.105916  0.105916  0.105916      1.000000
 


--------------------------------------------------------------------------------------------------------




 Dimension of arrays:
   k-points           NKPTS =     35   k-points in BZ     NKDIM =     35   number of bands    NBANDS=     30
   number of dos      NEDOS =    301   number of ions     NIONS =      4
   non local maximal  LDIM  =      8   non local SUM 2l+1 LMDIM =     32
   total plane-waves  NPLWV =  27000
   max r-space proj   IRMAX =   6952   max aug-charges    IRDMAX=  22225
   dimension x,y,z NGX =    30 NGY =   30 NGZ =   30
   dimension x,y,z NGXF=    60 NGYF=   60 NGZF=   60
   support grid    NGXF=    60 NGYF=   60 NGZF=   60
   ions per type =               4
   NGX,Y,Z   is equivalent  to a cutoff of  12.43, 12.43, 12.43 a.u.
   NGXF,Y,Z  is equivalent  to a cutoff of  24.86, 24.86, 24.86 a.u.

 SYSTEM =  unknown system                          
 POSCAR =  Ce4                                     

 Startparameter for this run:
   NWRITE =      2    write-flag & timer
   PREC   = accura    normal or accurate (medium, high low for compatibility)
   ISTART =      0    job   : 0-new  1-cont  2-samecut
   ICHARG =      2    charge: 1-file 2-atom 10-const
   ISPIN  =      1    spin polarized calculation?
   LNONCOLLINEAR =      F non collinear calculations
   LSORBIT =      F    spin-orbit coupling
   INIWAV =      1    electr: 0-lowe 1-rand  2-diag
   LASPH  =      T    aspherical Exc in radial PAW
 Electronic Relaxation 1
   ENCUT  =  520.0 eV  38.22 Ry    6.18 a.u.   7.46  7.46  7.46*2*pi/ulx,y,z
   ENINI  =  520.0     initial cutoff
   ENAUG  =  580.2 eV  augmentation charge cutoff
   NELM   =    400;   NELMIN=  2; NELMDL= -5     # of ELM steps 
   EDIFF  = 0.1E-04   stopping-criterion for ELM
   LREAL  =      T    real-space projection
   NLSPLINE    = F    spline interpolate recip. space projectors
   LCOMPAT=      F    compatible to vasp.4.4
   GGA_COMPAT  = T    GGA compatible to vasp.4.4-vasp.4.6
   LMAXPAW     = -100 max onsite density
   LMAXMIX     =    2 max onsite mixed and CHGCAR
   VOSKOWN=      0    Vosko Wilk Nusair interpolation
   ROPT   =   -0.00025
 Ionic relaxation
   EDIFFG = 0.1E-03   stopping-criterion for IOM
   NSW    =      0    number of steps for IOM
   NBLOCK =      1;   KBLOCK =      1    inner block; outer block 
   IBRION =     -1    ionic relax: 0-MD 1-quasi-New 2-CG
   NFREE  =      0    steps in history (QN), initial steepest desc. (CG)
   ISIF   =      2    stress and relaxation
   IWAVPR =     10    prediction:  0-non 1-charg 2-wave 3-comb
   ISYM   =      2    0-nonsym 1-usesym 2-fastsym
   LCORR  =      T    Harris-Foulkes like correction to forces

   POTIM  = 0.5000    time-step for ionic-motion
   TEIN   =    0.0    initial temperature
   TEBEG  =    0.0;   TEEND  =   0.0 temperature during run
   SMASS  =  -3.00    Nose mass-parameter (am)
   estimated Nose-frequenzy (Omega)   =  0.10E-29 period in steps = 0.13E+47 mass=  -0.368E-27a.u.
   SCALEE = 1.0000    scale energy and forces
   NPACO  =    256;   APACO  = 10.0  distance and # of slots for P.C.
   PSTRESS=    0.0 pullay stress

  Mass of Ions in am
   POMASS = 140.12
  Ionic Valenz
   ZVAL   =  12.00
  Atomic Wigner-Seitz radii
   RWIGS  =  -1.00
  virtual crystal weights 
   VCA    =   1.00
   NELECT =      48.0000    total number of electrons
   NUPDOWN=      -1.0000    fix difference up-down

 DOS related values:
   EMIN   =  10.00;   EMAX   =-10.00  energy-range for DOS
   EFERMI =   0.00
   ISMEAR =     1;   SIGMA  =   0.10  broadening in eV -4-tet -1-fermi 0-gaus

 Electronic relaxation 2 (details)
   IALGO  =     38    algorithm
   LDIAG  =      T    sub-space diagonalisation (order eigenvalues)
   LSUBROT=      F    optimize rotation matrix (better conditioning)
   TURBO    =      0    0=normal 1=particle mesh
   IRESTART =      0    0=no restart 2=restart with 2 vectors
   NREBOOT  =      0    no. of reboots
   NMIN     =      0    reboot dimension
   EREF     =   0.00    reference energy to select bands
   IMIX   =      4    mixing-type and parameters
     AMIX     =   0.40;   BMIX     =  1.00
     AMIX_MAG =   1.60;   BMIX_MAG =  1.00
     AMIN     =   0.10
     WC   =   100.;   INIMIX=   1;  MIXPRE=   1;  MAXMIX= -45

 Intra band minimization:
   WEIMIN = 0.0000     energy-eigenvalue tresh-hold
   EBREAK =  0.83E-07  absolut break condition
   DEPER  =   0.30     relativ break condition  

   TIME   =   0.40     timestep for ELM

  volume/ion in A,a.u.               =      16.15       109.00
  Fermi-wavevector in a.u.,A,eV,Ry     =   1.482732  2.801958 29.912344  2.198495
  Thomas-Fermi vector in A             =   2.596482
 
 Write flags
   LWAVE        =      F    write WAVECAR
   LDOWNSAMPLE  =      F    k-point downsampling of WAVECAR
   LCHARG       =      F    write CHGCAR
   LVTOT        =      F    write LOCPOT, total local potential
   LVHAR        =      F    write LOCPOT, Hartree potential only
   LELF         =      F    write electronic localiz. function (ELF)
   LORBIT       =      0    0 simple, 1 ext, 2 COOP (PROOUT), +10 PAW based schemes


 Dipole corrections
   LMONO  =      F    monopole corrections only (constant potential shift)
   LDIPOL =      F    correct potential (dipole corrections)
   IDIPOL =      0    1-x, 2-y, 3-z, 4-all directions 
   EPSILON=  1.0000000 bulk dielectric constant

 Exchange correlation treatment:
   GGA     =    --    GGA type
   LEXCH   =     8    internal setting for exchange type
   LIBXC   =     F    Libxc                    
   VOSKOWN =     0    Vosko Wilk Nusair interpolation
   LHFCALC =     F    Hartree Fock is set to
   LHFONE  =     F    Hartree Fock one center treatment
   AEXX    =    0.0000 exact exchange contribution

 Linear response parameters
   LEPSILON=     F    determine dielectric tensor
   LRPA    =     F    only Hartree local field effects (RPA)
   LNABLA  =     F    use nabla operator in PAW spheres
   LVEL    =     F    velocity operator in full k-point grid
   CSHIFT  =0.1000    complex shift for real part using Kramers Kronig
   OMEGAMAX=  -1.0    maximum frequency
   DEG_THRESHOLD= 0.2000000E-02 threshold for treating states as degnerate
   RTIME   =   -0.100 relaxation time in fs
  (WPLASMAI=    0.000 imaginary part of plasma frequency in eV, 0.658/RTIME)
   DFIELD  = 0.0000000 0.0000000 0.0000000 field for delta impulse in time
 
  Optional k-point grid parameters
   LKPOINTS_OPT  =     F    use optional k-point grid
   KPOINTS_OPT_MODE=     1    mode for optional k-point grid
 
 Orbital magnetization related:
   ORBITALMAG=     F  switch on orbital magnetization
   LCHIMAG   =     F  perturbation theory with respect to B field
   DQ        =  0.001000  dq finite difference perturbation B field
   LLRAUG    =     F  two centre corrections for induced B field



--------------------------------------------------------------------------------------------------------


 Static calculation
 charge density and potential will be updated during run
 non-spin polarized calculation
 Variant of blocked Davidson
 Davidson routine will perform the subspace rotation
 perform sub-space diagonalisation
    after iterative eigenvector-optimisation
 modified Broyden-mixing scheme, WC =      100.0
 initial mixing is a Kerker type mixing with AMIX =  0.4000 and BMIX =      1.0000
 Hartree-type preconditioning will be used
 using additional bands            6
 real space projection scheme for non local part
 use partial core corrections
 calculate Harris-corrections to forces 
   (improved forces if not selfconsistent)
 use gradient corrections 
 use of overlap-Matrix (Vanderbilt PP)
 Methfessel and Paxton  Order N= 1 SIGMA  =   0.10


--------------------------------------------------------------------------------------------------------


  energy-cutoff  :      520.00
  volume of cell :       64.61
      direct lattice vectors                 reciprocal lattice vectors
     4.012599430  0.000000000  0.000000000     0.249215008  0.000000000  0.000000000
     0.000000000  4.012599430  0.000000000     0.000000000  0.249215008  0.000000000
     0.000000000  0.000000000  4.012599430     0.000000000  0.000000000  0.249215008

  length of vectors
     4.012599430  4.012599430  4.012599430     0.249215008  0.249215008  0.249215008


 
 k-points in units of 2pi/SCALE and weight: read from INCAR                         
   0.00000000  0.00000000  0.00000000       0.002
   0.02647909  0.00000000  0.00000000       0.012
   0.05295819  0.00000000  0.00000000       0.012
   0.07943728  0.00000000  0.00000000       0.012
   0.10591638  0.00000000  0.00000000       0.006
   0.02647909  0.02647909  0.00000000       0.023
   0.05295819  0.02647909  0.00000000       0.047
   0.07943728  0.02647909  0.00000000       0.047
   0.10591638  0.02647909  0.00000000       0.023
   0.05295819  0.05295819  0.00000000       0.023
   0.07943728  0.05295819  0.00000000       0.047
   0.10591638  0.05295819  0.00000000       0.023
   0.07943728  0.07943728  0.00000000       0.023
   0.10591638  0.07943728  0.00000000       0.023
   0.10591638  0.10591638  0.00000000       0.006
   0.02647909  0.02647909  0.02647909       0.016
   0.05295819  0.02647909  0.02647909       0.047
   0.07943728  0.02647909  0.02647909       0.047
   0.10591638  0.02647909  0.02647909       0.023
   0.05295819  0.05295819  0.02647909       0.047
   0.07943728  0.05295819  0.02647909       0.094
   0.10591638  0.05295819  0.02647909       0.047
   0.07943728  0.07943728  0.02647909       0.047
   0.10591638  0.07943728  0.02647909       0.047
   0.10591638  0.10591638  0.02647909       0.012
   0.05295819  0.05295819  0.05295819       0.016
   0.07943728  0.05295819  0.05295819       0.047
   0.10591638  0.05295819  0.05295819       0.023
   0.07943728  0.07943728  0.05295819       0.047
   0.10591638  0.07943728  0.05295819       0.047
   0.10591638  0.10591638  0.05295819       0.012
   0.07943728  0.07943728  0.07943728       0.016
   0.10591638  0.07943728  0.07943728       0.023
   0.10591638  0.10591638  0.07943728       0.012
   0.10591638  0.10591638  0.10591638       0.002
 
 k-points in reciprocal lattice and weights: read from INCAR                         
   0.00000000  0.00000000  0.00000000       0.002
   0.12500000  0.00000000  0.00000000       0.012
   0.25000000  0.00000000  0.00000000       0.012
   0.37500000  0.00000000  0.00000000       0.012
   0.50000000  0.00000000  0.00000000       0.006
   0.12500000  0.12500000  0.00000000       0.023
   0.25000000  0.12500000  0.00000000       0.047
   0.37500000  0.12500000  0.00000000       0.047
   0.50000000  0.12500000  0.00000000       0.023
   0.25000000  0.25000000  0.00000000       0.023
   0.37500000  0.25000000  0.00000000       0.047
   0.50000000  0.25000000  0.00000000       0.023
   0.37500000  0.37500000  0.00000000       0.023
   0.50000000  0.37500000  0.00000000       0.023
   0.50000000  0.50000000  0.00000000       0.006
   0.12500000  0.12500000  0.12500000       0.016
   0.25000000  0.12500000  0.12500000       0.047
   0.37500000  0.12500000  0.12500000       0.047
   0.50000000  0.12500000  0.12500000       0.023
   0.25000000  0.25000000  0.12500000       0.047
   0.37500000  0.25000000  0.12500000       0.094
   0.50000000  0.25000000  0.12500000       0.047
   0.37500000  0.37500000  0.12500000       0.047
   0.50000000  0.37500000  0.12500000       0.047
   0.50000000  0.50000000  0.12500000       0.012
   0.25000000  0.25000000  0.25000000       0.016
   0.37500000  0.25000000  0.25000000       0.047
   0.50000000  0.25000000  0.25000000       0.023
   0.37500000  0.37500000  0.25000000       0.047
   0.50000000  0.37500000  0.25000000       0.047
   0.50000000  0.50000000  0.25000000       0.012
   0.37500000  0.37500000  0.37500000       0.016
   0.50000000  0.37500000  0.37500000       0.023
   0.50000000  0.50000000  0.37500000       0.012
   0.50000000  0.50000000  0.50000000       0.002
 
 position of ions in fractional coordinates (direct lattice) 
   0.00000000  0.00000000  0.00000000
   0.00000000  0.50000000  0.50000000
   0.50000000  0.00000000  0.50000000
   0.50000000  0.50000000  0.00000000
 
 position of ions in cartesian coordinates  (Angst):
   0.00000000  0.00000000  0.00000000
   0.00000000  2.00629971  2.00629971
   2.00629971  0.00000000  2.00629971
   2.00629971  2.00629971  0.00000000
 


--------------------------------------------------------------------------------------------------------


 k-point   1 :   0.0000 0.0000 0.0000  plane waves:    1743
 k-point   2 :   0.1250 0.0000 0.0000  plane waves:    1763
 k-point   3 :   0.2500 0.0000 0.0000  plane waves:    1763
 k-point   4 :   0.3750 0.0000 0.0000  plane waves:    1755
 k-point   5 :   0.5000 0.0000 0.0000  plane waves:    1750
 k-point   6 :   0.1250 0.1250 0.0000  plane waves:    1761
 k-point   7 :   0.2500 0.1250 0.0000  plane waves:    1750
 k-point   8 :   0.3750 0.1250 0.0000  plane waves:    1748
 k-point   9 :   0.5000 0.1250 0.0000  plane waves:    1732
 k-point  10 :   0.2500 0.2500 0.0000  plane waves:    1759
 k-point  11 :   0.3750 0.2500 0.0000  plane waves:    1743
 k-point  12 :   0.5000 0.2500 0.0000  plane waves:    1724
 k-point  13 :   0.3750 0.3750 0.0000  plane waves:    1732
 k-point  14 :   0.5000 0.3750 0.0000  plane waves:    1732
 k-point  15 :   0.5000 0.5000 0.0000  plane waves:    1740
 k-point  16 :   0.1250 0.1250 0.1250  plane waves:    1752
 k-point  17 :   0.2500 0.1250 0.1250  plane waves:    1749
 k-point  18 :   0.3750 0.1250 0.1250  plane waves:    1735
 k-point  19 :   0.5000 0.1250 0.1250  plane waves:    1748
 k-point  20 :   0.2500 0.2500 0.1250  plane waves:    1753
 k-point  21 :   0.3750 0.2500 0.1250  plane waves:    1728
 k-point  22 :   0.5000 0.2500 0.1250  plane waves:    1736
 k-point  23 :   0.3750 0.3750 0.1250  plane waves:    1737
 k-point  24 :   0.5000 0.3750 0.1250  plane waves:    1730
 k-point  25 :   0.5000 0.5000 0.1250  plane waves:    1720
 k-point  26 :   0.2500 0.2500 0.2500  plane waves:    1722
 k-point  27 :   0.3750 0.2500 0.2500  plane waves:    1733
 k-point  28 :   0.5000 0.2500 0.2500  plane waves:    1728
 k-point  29 :   0.3750 0.3750 0.2500  plane waves:    1741
 k-point  30 :   0.5000 0.3750 0.2500  plane waves:    1738
 k-point  31 :   0.5000 0.5000 0.2500  plane waves:    1748
 k-point  32 :   0.3750 0.3750 0.3750  plane waves:    1727
 k-point  33 :   0.5000 0.3750 0.3750  plane waves:    1740
 k-point  34 :   0.5000 0.5000 0.3750  plane waves:    1748
 k-point  35 :   0.5000 0.5000 0.5000  plane waves:    1736

 maximum and minimum number of plane-waves per node :       120       94

 maximum number of plane-waves:      1763
 maximum index in each direction: 
   IXMAX=    7   IYMAX=    7   IZMAX=    7
   IXMIN=   -7   IYMIN=   -7   IZMIN=   -7


 real space projection operators:
  total allocation   :       6667.00 KBytes
  max/ min on nodes  :        502.00        210.50


 parallel 3D FFT for wavefunctions:
    minimum data exchange during FFTs selected (reduces bandwidth)
 parallel 3D FFT for charge:
    minimum data exchange during FFTs selected (reduces bandwidth)


 total amount of memory used by VASP MPI-rank0    31919. kBytes
=======================================================================

   base      :      30000. kBytes
   nonlr-proj:        991. kBytes
   fftplans  :        194. kBytes
   grid      :        249. kBytes
   one-center:         49. kBytes
   wavefun   :        436. kBytes
 
     INWAV:  cpu time      0.0001: real time      0.0001
 Broyden mixing: mesh for mixing (old mesh)
   NGX = 15   NGY = 15   NGZ = 15
  (NGX  = 60   NGY  = 60   NGZ  = 60)
  gives a total of   3375 points

 initial charge density was supplied:
 charge density of overlapping atoms calculated
 number of electron      48.0000000 magnetization 
 keeping initial charge density in first step


--------------------------------------------------------------------------------------------------------


 Maximum index for non-local projection operator          429
 Maximum index for augmentation-charges          941 (set IRDMAX)


--------------------------------------------------------------------------------------------------------


 First call to EWALD:  gamma=   0.442
 Maximum number of real-space cells 3x 3x 3
 Maximum number of reciprocal cells 3x 3x 3

    FEWALD:  cpu time      0.0023: real time      0.0023


--------------------------------------- Iteration      1(   1)  ---------------------------------------


    POTLOK:  cpu time      0.0117: real time      0.0163
    SETDIJ:  cpu time      0.2823: real time      0.2849
     EDDAV:  cpu time      0.4251: real time      0.5130
       DOS:  cpu time      0.0029: real time      0.0050
    --------------------------------------------
      LOOP:  cpu time      0.7220: real time      0.8192

 eigenvalue-minimisations  :  2100
 total energy-change (2. order) : 0.5188806E+03  (-0.1839701E+04)
 number of electron      48.0000000 magnetization 
 augmentation part       48.0000000 magnetization 

 Free energy of the ion-electron system (eV)
  ---------------------------------------------------
  alpha Z        PSCENC =       521.23103907
  Ewald energy   TEWEN  =     -4738.58891127
  -Hartree energ DENC   =      -269.88956287
  -exchange      EXHF   =         0.00000000
  -V(xc)+E(xc)   XCENC  =        35.34184251
  PAW double counting   =      3403.36026388    -3306.37754537
  entropy T*S    EENTRO =         0.00049331
  eigenvalues    EBANDS =       621.51173928
  atomic energy  EATOM  =      4252.29121739
  Solvation  Ediel_sol  =         0.00000000
  ---------------------------------------------------
  free energy    TOTEN  =       518.88057593 eV

  energy without entropy =      518.88008262  energy(sigma->0) =      518.88041149


--------------------------------------------------------------------------------------------------------




--------------------------------------- Iteration      1(   2)  ---------------------------------------


     EDDAV:  cpu time      0.5175: real time      0.5289
       DOS:  cpu time      0.0008: real time      0.0008
    --------------------------------------------
      LOOP:  cpu time      0.5182: real time      0.5297

 eigenvalue-minimisations  :  3492
 total energy-change (2. order) :-0.4756632E+03  (-0.4667726E+03)
 number of electron      48.0000000 magnetization 
 augmentation part       48.0000000 magnetization 

 Free energy of the ion-electron system (eV)
  ---------------------------------------------------
  alpha Z        PSCENC =       521.23103907
  Ewald energy   TEWEN  =     -4738.58891127
  -Hartree energ DENC   =      -269.88956287
  -exchange      EXHF   =         0.00000000
  -V(xc)+E(xc)   XCENC  =        35.34184251
  PAW double counting   =      3403.36026388    -3306.37754537
  entropy T*S    EENTRO =         0.00219795
  eigenvalues    EBANDS =       145.84685807
  atomic energy  EATOM  =      4252.29121739
  Solvation  Ediel_sol  =         0.00000000
  ---------------------------------------------------
  free energy    TOTEN  =        43.21739937 eV

  energy without entropy =       43.21520141  energy(sigma->0) =       43.21666671


--------------------------------------------------------------------------------------------------------




--------------------------------------- Iteration      1(   3)  ---------------------------------------


     EDDAV:  cpu time      0.4512: real time      0.4647
       DOS:  cpu time      0.0008: real time      0.0008
    --------------------------------------------
      LOOP:  cpu time      0.4520: real time      0.4655

 eigenvalue-minimisations  :  3180
 total energy-change (2. order) :-0.6031821E+02  (-0.5940240E+02)
 number of electron      48.0000000 magnetization 
 augmentation part       48.0000000 magnetization 

 Free energy of the ion-electron system (eV)
  ---------------------------------------------------
  alpha Z        PSCENC =       521.23103907
  Ewald energy   TEWEN  =     -4738.58891127
  -Hartree energ DENC   =      -269.88956287
  -exchange      EXHF   =         0.00000000
  -V(xc)+E(xc)   XCENC  =        35.34184251
  PAW double counting   =      3403.36026388    -3306.37754537
  entropy T*S    EENTRO =         0.00084637
  eigenvalues    EBANDS =        85.52999872
  atomic energy  EATOM  =      4252.29121739
  Solvation  Ediel_sol  =         0.00000000
  ---------------------------------------------------
  free energy    TOTEN  =       -17.10081157 eV

  energy without entropy =      -17.10165794  energy(sigma->0) =      -17.10109369


--------------------------------------------------------------------------------------------------------




--------------------------------------- Iteration      1(   4)  ---------------------------------------


     EDDAV:  cpu time      0.5623: real time      0.5772
       DOS:  cpu time      0.0009: real time      0.0009
    --------------------------------------------
      LOOP:  cpu time      0.5632: real time      0.5781

 eigenvalue-minimisations  :  4050
 total energy-change (2. order) :-0.4302977E+01  (-0.4130808E+01)
 number of electron      48.0000000 magnetization 
 augmentation part       48.0000000 magnetization 

 Free energy of the ion-electron system (eV)
  ---------------------------------------------------
  alpha Z        PSCENC =       521.23103907
  Ewald energy   TEWEN  =     -4738.58891127
  -Hartree energ DENC   =      -269.88956287
  -exchange      EXHF   =         0.00000000
  -V(xc)+E(xc)   XCENC  =        35.34184251
  PAW double counting   =      3403.36026388    -3306.37754537
  entropy T*S    EENTRO =        -0.00018012
  eigenvalues    EBANDS =        81.22804772
  atomic energy  EATOM  =      4252.29121739
  Solvation  Ediel_sol  =         0.00000000
  ---------------------------------------------------
  free energy    TOTEN  =       -21.40378906 eV

  energy without entropy =      -21.40360894  energy(sigma->0) =      -21.40372902


--------------------------------------------------------------------------------------------------------




--------------------------------------- Iteration      1(   5)  ---------------------------------------


     EDDAV:  cpu time      0.5293: real time      0.5434
       DOS:  cpu time      0.0020: real time      0.0020
    CHARGE:  cpu time      0.0244: real time      0.0298
    MIXING:  cpu time      0.0036: real time      0.0077
    --------------------------------------------
      LOOP:  cpu time      0.5594: real time      0.5828

 eigenvalue-minimisations  :  3702
 total energy-change (2. order) :-0.3785122E+00  (-0.3623574E+00)
 number of electron      47.9999992 magnetization 
 augmentation part       -5.0537634 magnetization 

 Broyden mixing:
  rms(total) = 0.96834E+01    rms(broyden)= 0.96834E+01
  rms(prec ) = 0.99941E+01
  weight for this iteration     100.00

 Free energy of the ion-electron system (eV)
  ---------------------------------------------------
  alpha Z        PSCENC =       521.23103907
  Ewald energy   TEWEN  =     -4738.58891127
  -Hartree energ DENC   =      -269.88956287
  -exchange      EXHF   =         0.00000000
  -V(xc)+E(xc)   XCENC  =        35.34184251
  PAW double counting   =      3403.36026388    -3306.37754537
  entropy T*S    EENTRO =        -0.00208754
  eigenvalues    EBANDS =        80.85144293
  atomic energy  EATOM  =      4252.29121739
  Solvation  Ediel_sol  =         0.00000000
  ---------------------------------------------------
  free energy    TOTEN  =       -21.78230126 eV

  energy without entropy =      -21.78021373  energy(sigma->0) =      -21.78160542


--------------------------------------------------------------------------------------------------------




--------------------------------------- Iteration      1(   6)  ---------------------------------------


    POTLOK:  cpu time      0.0073: real time      0.0188
    SETDIJ:  cpu time      0.2773: real time      0.2780
     EDDAV:  cpu time      0.4081: real time      0.4092
       DOS:  cpu time      0.0009: real time      0.0009
    CHARGE:  cpu time      0.0174: real time      0.0175
    MIXING:  cpu time      0.0007: real time      0.0022
    --------------------------------------------
      LOOP:  cpu time      0.7118: real time      0.7265

 eigenvalue-minimisations  :  2826
 total energy-change (2. order) : 0.2877576E+01  (-0.2065385E+01)
 number of electron      47.9999995 magnetization 
 augmentation part       -3.3639415 magnetization 

 Broyden mixing:
  rms(total) = 0.29990E+01    rms(broyden)= 0.29990E+01
  rms(prec ) = 0.30060E+01
  weight for this iteration     100.00

 eigenvalues of (default mixing * dielectric matrix)
  average eigenvalue GAMMA=   1.4370
  1.4370

 Free energy of the ion-electron system (eV)
  ---------------------------------------------------
  alpha Z        PSCENC =       521.23103907
  Ewald energy   TEWEN  =     -4738.58891127
  -Hartree energ DENC   =      -236.32514818
  -exchange      EXHF   =         0.00000000
  -V(xc)+E(xc)   XCENC  =        35.29474828
  PAW double counting   =      4136.18154395    -4040.66517605
  entropy T*S    EENTRO =        -0.00047063
  eigenvalues    EBANDS =        51.67643199
  atomic energy  EATOM  =      4252.29121739
  Solvation  Ediel_sol  =         0.00000000
  ---------------------------------------------------
  free energy    TOTEN  =       -18.90472545 eV

  energy without entropy =      -18.90425483  energy(sigma->0) =      -18.90456858


--------------------------------------------------------------------------------------------------------




--------------------------------------- Iteration      1(   7)  ---------------------------------------


    POTLOK:  cpu time      0.0090: real time      0.0201
    SETDIJ:  cpu time      0.2763: real time      0.2769
     EDDAV:  cpu time      0.5124: real time      0.5137
       DOS:  cpu time      0.0009: real time      0.0009
    CHARGE:  cpu time      0.0160: real time      0.0160
    MIXING:  cpu time      0.0004: real time      0.0009
    --------------------------------------------
      LOOP:  cpu time      0.8150: real time      0.8285

 eigenvalue-minimisations  :  3690
 total energy-change (2. order) : 0.1468552E+00  (-0.3556059E+00)
 number of electron      47.9999993 magnetization 
 augmentation part       -4.3147301 magnetization 

 Broyden mixing:
  rms(total) = 0.24013E+01    rms(broyden)= 0.24013E+01
  rms(prec ) = 0.24298E+01
  weight for this iteration     100.00

 eigenvalues of (default mixing * dielectric matrix)
  average eigenvalue GAMMA=   1.8478
  0.8419  2.8538

 Free energy of the ion-electron system (eV)
  ---------------------------------------------------
  alpha Z        PSCENC =       521.23103907
  Ewald energy   TEWEN  =     -4738.58891127
  -Hartree energ DENC   =      -239.09402898
  -exchange      EXHF   =         0.00000000
  -V(xc)+E(xc)   XCENC  =        35.41715426
  PAW double counting   =      4688.73152199    -4599.71911964
  entropy T*S    EENTRO =        -0.00189613
  eigenvalues    EBANDS =        60.97515304
  atomic energy  EATOM  =      4252.29121739
  Solvation  Ediel_sol  =         0.00000000
  ---------------------------------------------------
  free energy    TOTEN  =       -18.75787028 eV

  energy without entropy =      -18.75597414  energy(sigma->0) =      -18.75723823


--------------------------------------------------------------------------------------------------------




--------------------------------------- Iteration      1(   8)  ---------------------------------------


    POTLOK:  cpu time      0.0075: real time      0.0186
    SETDIJ:  cpu time      0.2762: real time      0.2768
     EDDAV:  cpu time      0.5356: real time      0.5371
       DOS:  cpu time      0.0009: real time      0.0009
    CHARGE:  cpu time      0.0168: real time      0.0169
    MIXING:  cpu time      0.0004: real time      0.0006
    --------------------------------------------
      LOOP:  cpu time      0.8373: real time      0.8508

 eigenvalue-minimisations  :  3858
 total energy-change (2. order) : 0.2788326E-01  (-0.9987018E-01)
 number of electron      47.9999994 magnetization 
 augmentation part       -4.1654469 magnetization 

 Broyden mixing:
  rms(total) = 0.33781E+00    rms(broyden)= 0.33781E+00
  rms(prec ) = 0.37934E+00
  weight for this iteration     100.00

 eigenvalues of (default mixing * dielectric matrix)
  average eigenvalue GAMMA=   1.7498
  2.6303  1.8102  0.8089

 Free energy of the ion-electron system (eV)
  ---------------------------------------------------
  alpha Z        PSCENC =       521.23103907
  Ewald energy   TEWEN  =     -4738.58891127
  -Hartree energ DENC   =      -231.30828257
  -exchange      EXHF   =         0.00000000
  -V(xc)+E(xc)   XCENC  =        35.35395047
  PAW double counting   =      5294.54996525    -5207.95792397
  entropy T*S    EENTRO =        -0.00115012
  eigenvalues    EBANDS =        55.70010874
  atomic energy  EATOM  =      4252.29121739
  Solvation  Ediel_sol  =         0.00000000
  ---------------------------------------------------
  free energy    TOTEN  =       -18.72998702 eV

  energy without entropy =      -18.72883689  energy(sigma->0) =      -18.72960364


--------------------------------------------------------------------------------------------------------




--------------------------------------- Iteration      1(   9)  ---------------------------------------


    POTLOK:  cpu time      0.0050: real time      0.0172
    SETDIJ:  cpu time      0.2762: real time      0.2769
     EDDAV:  cpu time      0.5438: real time      0.5452
       DOS:  cpu time      0.0008: real time      0.0008
    CHARGE:  cpu time      0.0168: real time      0.0169
    MIXING:  cpu time      0.0002: real time      0.0002
    --------------------------------------------
      LOOP:  cpu time      0.8430: real time      0.8573

 eigenvalue-minimisations  :  3960
 total energy-change (2. order) :-0.6661230E-02  (-0.2150582E-01)
 number of electron      47.9999993 magnetization 
 augmentation part       -4.3728535 magnetization 

 Broyden mixing:
  rms(total) = 0.51038E-01    rms(broyden)= 0.51037E-01
  rms(prec ) = 0.67216E-01
  weight for this iteration     100.00

 eigenvalues of (default mixing * dielectric matrix)
  average eigenvalue GAMMA=   2.0967
  3.8705  2.7668  0.9682  0.7812

 Free energy of the ion-electron system (eV)
  ---------------------------------------------------
  alpha Z        PSCENC =       521.23103907
  Ewald energy   TEWEN  =     -4738.58891127
  -Hartree energ DENC   =      -233.68295729
  -exchange      EXHF   =         0.00000000
  -V(xc)+E(xc)   XCENC  =        35.22306108
  PAW double counting   =      5218.32409085    -5130.06493188
  entropy T*S    EENTRO =        -0.00130510
  eigenvalues    EBANDS =        56.53204892
  atomic energy  EATOM  =      4252.29121739
  Solvation  Ediel_sol  =         0.00000000
  ---------------------------------------------------
  free energy    TOTEN  =       -18.73664825 eV

  energy without entropy =      -18.73534314  energy(sigma->0) =      -18.73621321


--------------------------------------------------------------------------------------------------------




--------------------------------------- Iteration      1(  10)  ---------------------------------------


    POTLOK:  cpu time      0.0095: real time      0.0184
    SETDIJ:  cpu time      0.2762: real time      0.2768
     EDDAV:  cpu time      0.5286: real time      0.5299
       DOS:  cpu time      0.0009: real time      0.0009
    CHARGE:  cpu time      0.0169: real time      0.0169
    MIXING:  cpu time      0.0003: real time      0.0003
    --------------------------------------------
      LOOP:  cpu time      0.8324: real time      0.8432

 eigenvalue-minimisations  :  3864
 total energy-change (2. order) :-0.9383494E-03  (-0.2408484E-02)
 number of electron      47.9999993 magnetization 
 augmentation part       -4.3757415 magnetization 

 Broyden mixing:
  rms(total) = 0.45474E-01    rms(broyden)= 0.45474E-01
  rms(prec ) = 0.54951E-01
  weight for this iteration     100.00

 eigenvalues of (default mixing * dielectric matrix)
  average eigenvalue GAMMA=   1.6973
  2.8899  2.4116  1.4044  0.7858  0.9948

 Free energy of the ion-electron system (eV)
  ---------------------------------------------------
  alpha Z        PSCENC =       521.23103907
  Ewald energy   TEWEN  =     -4738.58891127
  -Hartree energ DENC   =      -234.76112574
  -exchange      EXHF   =         0.00000000
  -V(xc)+E(xc)   XCENC  =        35.02593809
  PAW double counting   =      5190.46842713    -5099.82775667
  entropy T*S    EENTRO =        -0.00128402
  eigenvalues    EBANDS =        55.42486943
  atomic energy  EATOM  =      4252.29121739
  Solvation  Ediel_sol  =         0.00000000
  ---------------------------------------------------
  free energy    TOTEN  =       -18.73758660 eV

  energy without entropy =      -18.73630258  energy(sigma->0) =      -18.73715859


--------------------------------------------------------------------------------------------------------




--------------------------------------- Iteration      1(  11)  ---------------------------------------


    POTLOK:  cpu time      0.0047: real time      0.0178
    SETDIJ:  cpu time      0.2773: real time      0.2779
     EDDAV:  cpu time      0.5662: real time      0.5677
       DOS:  cpu time      0.0008: real time      0.0008
    CHARGE:  cpu time      0.0165: real time      0.0165
    MIXING:  cpu time      0.0003: real time      0.0003
    --------------------------------------------
      LOOP:  cpu time      0.8658: real time      0.8811

 eigenvalue-minimisations  :  4128
 total energy-change (2. order) :-0.5797194E-03  (-0.6220138E-03)
 number of electron      47.9999993 magnetization 
 augmentation part       -4.3911535 magnetization 

 Broyden mixing:
  rms(total) = 0.13381E-01    rms(broyden)= 0.13381E-01
  rms(prec ) = 0.20916E-01
  weight for this iteration     100.00

 eigenvalues of (default mixing * dielectric matrix)
  average eigenvalue GAMMA=   1.4859
  2.8229  2.4220  1.2061  0.7851  0.9771  0.7020

 Free energy of the ion-electron system (eV)
  ---------------------------------------------------
  alpha Z        PSCENC =       521.23103907
  Ewald energy   TEWEN  =     -4738.58891127
  -Hartree energ DENC   =      -234.15063166
  -exchange      EXHF   =         0.00000000
  -V(xc)+E(xc)   XCENC  =        35.09730459
  PAW double counting   =      5210.55272844    -5120.84564282
  entropy T*S    EENTRO =        -0.00127371
  eigenvalues    EBANDS =        55.67600366
  atomic energy  EATOM  =      4252.29121739
  Solvation  Ediel_sol  =         0.00000000
  ---------------------------------------------------
  free energy    TOTEN  =       -18.73816632 eV

  energy without entropy =      -18.73689261  energy(sigma->0) =      -18.73774175


--------------------------------------------------------------------------------------------------------




--------------------------------------- Iteration      1(  12)  ---------------------------------------


    POTLOK:  cpu time      0.0050: real time      0.0183
    SETDIJ:  cpu time      0.2766: real time      0.2772
     EDDAV:  cpu time      0.4980: real time      0.4994
       DOS:  cpu time      0.0008: real time      0.0008
    CHARGE:  cpu time      0.0169: real time      0.0170
    MIXING:  cpu time      0.0003: real time      0.0003
    --------------------------------------------
      LOOP:  cpu time      0.7977: real time      0.8130

 eigenvalue-minimisations  :  3666
 total energy-change (2. order) :-0.8098115E-04  (-0.1298376E-03)
 number of electron      47.9999993 magnetization 
 augmentation part       -4.3968340 magnetization 

 Broyden mixing:
  rms(total) = 0.90241E-02    rms(broyden)= 0.90241E-02
  rms(prec ) = 0.13808E-01
  weight for this iteration     100.00

 eigenvalues of (default mixing * dielectric matrix)
  average eigenvalue GAMMA=   1.8326
  4.2443  2.7259  2.3742  1.1212  0.9101  0.7699  0.6824

 Free energy of the ion-electron system (eV)
  ---------------------------------------------------
  alpha Z        PSCENC =       521.23103907
  Ewald energy   TEWEN  =     -4738.58891127
  -Hartree energ DENC   =      -234.22511711
  -exchange      EXHF   =         0.00000000
  -V(xc)+E(xc)   XCENC  =        35.08354457
  PAW double counting   =      5210.66628054    -5120.83699998
  entropy T*S    EENTRO =        -0.00127604
  eigenvalues    EBANDS =        55.64197553
  atomic energy  EATOM  =      4252.29121739
  Solvation  Ediel_sol  =         0.00000000
  ---------------------------------------------------
  free energy    TOTEN  =       -18.73824730 eV

  energy without entropy =      -18.73697126  energy(sigma->0) =      -18.73782195


--------------------------------------------------------------------------------------------------------




--------------------------------------- Iteration      1(  13)  ---------------------------------------


    POTLOK:  cpu time      0.0042: real time      0.0180
    SETDIJ:  cpu time      0.2787: real time      0.2794
     EDDAV:  cpu time      0.5081: real time      0.5094
       DOS:  cpu time      0.0009: real time      0.0009
    CHARGE:  cpu time      0.0166: real time      0.0166
    MIXING:  cpu time      0.0003: real time      0.0003
    --------------------------------------------
      LOOP:  cpu time      0.8087: real time      0.8246

 eigenvalue-minimisations  :  3588
 total energy-change (2. order) : 0.1158562E-04  (-0.3140586E-04)
 number of electron      47.9999993 magnetization 
 augmentation part       -4.4011227 magnetization 

 Broyden mixing:
  rms(total) = 0.19071E-02    rms(broyden)= 0.19070E-02
  rms(prec ) = 0.21787E-02
  weight for this iteration     100.00

 eigenvalues of (default mixing * dielectric matrix)
  average eigenvalue GAMMA=   1.6273
  2.7376  2.4545  2.2149  2.2149  1.0472  0.9291  0.7842  0.6361

 Free energy of the ion-electron system (eV)
  ---------------------------------------------------
  alpha Z        PSCENC =       521.23103907
  Ewald energy   TEWEN  =     -4738.58891127
  -Hartree energ DENC   =      -234.33532920
  -exchange      EXHF   =         0.00000000
  -V(xc)+E(xc)   XCENC  =        35.05735922
  PAW double counting   =      5209.64859595    -5119.59878470
  entropy T*S    EENTRO =        -0.00127891
  eigenvalues    EBANDS =        55.55785674
  atomic energy  EATOM  =      4252.29121739
  Solvation  Ediel_sol  =         0.00000000
  ---------------------------------------------------
  free energy    TOTEN  =       -18.73823571 eV

  energy without entropy =      -18.73695680  energy(sigma->0) =      -18.73780941


--------------------------------------------------------------------------------------------------------




--------------------------------------- Iteration      1(  14)  ---------------------------------------


    POTLOK:  cpu time      0.0045: real time      0.0177
    SETDIJ:  cpu time      0.2764: real time      0.2771
     EDDAV:  cpu time      0.3965: real time      0.3975
       DOS:  cpu time      0.0008: real time      0.0008
    --------------------------------------------
      LOOP:  cpu time      0.6782: real time      0.6931

 eigenvalue-minimisations  :  2676
 total energy-change (2. order) :-0.7322494E-05  (-0.9316184E-05)
 number of electron      47.9999993 magnetization 
 augmentation part       -4.4011227 magnetization 

 Free energy of the ion-electron system (eV)
  ---------------------------------------------------
  alpha Z        PSCENC =       521.23103907
  Ewald energy   TEWEN  =     -4738.58891127
  -Hartree energ DENC   =      -234.31046283
  -exchange      EXHF   =         0.00000000
  -V(xc)+E(xc)   XCENC  =        35.05934761
  PAW double counting   =      5209.21788659    -5119.18684970
  entropy T*S    EENTRO =        -0.00127699
  eigenvalues    EBANDS =        55.54976710
  atomic energy  EATOM  =      4252.29121739
  Solvation  Ediel_sol  =         0.00000000
  ---------------------------------------------------
  free energy    TOTEN  =       -18.73824303 eV

  energy without entropy =      -18.73696604  energy(sigma->0) =      -18.73781737


--------------------------------------------------------------------------------------------------------




 average (electrostatic) potential at core
  the test charge radii are     1.1513
  (the norm of the test charge is              1.0000)
       1 -66.7479       2 -66.7479       3 -66.7479       4 -66.7479
 
 
 
 E-fermi :  16.5177     XC(G=0): -13.9640     alpha+bet :-31.1814

 Fermi energy:        16.5176845031

 k-point     1 :       0.0000    0.0000    0.0000
  band No.  band energies     occupation 
      1     -20.4036      2.00000
      2     -17.1042      2.00000
      3     -17.1042      2.00000
      4     -17.1042      2.00000
      5      -5.1986      2.00000
      6      -5.1986      2.00000
      7      -5.1986      2.00000
      8      -0.6484      2.00000
      9      -0.6484      2.00000
     10      -0.6484      2.00000
     11      -0.6484      2.00000
     12      -0.6484      2.00000
     13      -0.6484      2.00000
     14       2.6972      2.00000
     15       2.6972      2.00000
     16       2.6972      2.00000
     17      10.8894      2.00000
     18      10.8894      2.00000
     19      10.8894      2.00000
     20      11.4322      2.00000
     21      11.4322      2.00000
     22      11.4322      2.00000
     23      15.1615      2.00000
     24      16.7813     -0.00123
     25      16.8291     -0.00010
     26      16.8291     -0.00010
     27      16.8291     -0.00010
     28      17.1643     -0.00000
     29      17.1643     -0.00000
     30      17.1643     -0.00000

 k-point     2 :       0.1250    0.0000    0.0000
  band No.  band energies     occupation 
      1     -20.3102      2.00000
      2     -17.2829      2.00000
      3     -17.0981      2.00000
      4     -17.0981      2.00000
      5      -5.0793      2.00000
      6      -5.0793      2.00000
      7      -4.8993      2.00000
      8      -0.9281      2.00000
      9      -0.9281      2.00000
     10      -0.7585      2.00000
     11      -0.7585      2.00000
     12      -0.5497      2.00000
     13      -0.5497      2.00000
     14       2.3145      2.00000
     15       2.5250      2.00000
     16       2.5250      2.00000
     17      11.1074      2.00000
     18      11.2900      2.00000
     19      11.2900      2.00000
     20      11.5295      2.00000
     21      11.9093      2.00000
     22      11.9093      2.00000
     23      14.9200      2.00000
     24      16.6716     -0.05176
     25      16.8745     -0.00001
     26      16.8745     -0.00001
     27      17.1432     -0.00000
     28      17.1432     -0.00000
     29      17.2054     -0.00000
     30      17.2540     -0.00000

 k-point     3 :       0.2500    0.0000    0.0000
  band No.  band energies     occupation 
      1     -20.0338      2.00000
      2     -17.7537      2.00000
      3     -17.0835      2.00000
      4     -17.0835      2.00000
      5      -4.7263      2.00000
      6      -4.7263      2.00000
      7      -4.0727      2.00000
      8      -1.6357      2.00000
      9      -1.6357      2.00000
     10      -1.0098      2.00000
     11      -1.0098      2.00000
     12      -0.2604      2.00000
     13      -0.2604      2.00000
     14       1.3136      2.00000
     15       2.0646      2.00000
     16       2.0646      2.00000
     17      11.7468      2.00000
     18      11.8173      2.00000
     19      12.3664      2.00000
     20      12.3664      2.00000
     21      13.1649      2.00000
     22      13.1649      2.00000
     23      14.3294      2.00000
     24      16.1608      2.00001
     25      17.0063     -0.00000
     26      17.0063     -0.00000
     27      17.0456     -0.00000
     28      17.0456     -0.00000
     29      17.3280     -0.00000
     30      17.4604     -0.00000

 k-point     4 :       0.3750    0.0000    0.0000
  band No.  band energies     occupation 
      1     -19.5925      2.00000
      2     -18.3769      2.00000
      3     -17.0688      2.00000
      4     -17.0688      2.00000
      5      -4.1560      2.00000
      6      -4.1560      2.00000
      7      -2.8776      2.00000
      8      -2.5238      2.00000
      9      -2.5238      2.00000
     10      -1.2433      2.00000
     11      -1.2433      2.00000
     12      -0.0267      2.00000
     13       0.1987      2.00000
     14       0.1987      2.00000
     15       1.4426      2.00000
     16       1.4426      2.00000
     17      12.2812      2.00000
     18      12.7530      2.00000
     19      13.6049      2.00000
     20      13.7639      2.00000
     21      13.7639      2.00000
     22      14.7606      2.00000
     23      14.7606      2.00000
     24      15.2321      2.00000
     25      16.7591     -0.00336
     26      16.7591     -0.00336
     27      16.9864     -0.00000
     28      16.9864     -0.00000
     29      17.2057     -0.00000
     30      17.2057     -0.00000

 k-point     5 :       0.5000    0.0000    0.0000
  band No.  band energies     occupation 
      1     -19.0205      2.00000
      2     -19.0205      2.00000
      3     -17.0629      2.00000
      4     -17.0629      2.00000
      5      -3.4014      2.00000
      6      -3.4014      2.00000
      7      -3.4014      2.00000
      8      -3.4014      2.00000
      9      -1.4788      2.00000
     10      -1.4788      2.00000
     11      -1.3355      2.00000
     12      -1.3355      2.00000
     13       0.7881      2.00000
     14       0.7881      2.00000
     15       0.7881      2.00000
     16       0.7881      2.00000
     17      12.8936      2.00000
     18      12.8936      2.00000
     19      13.9970      2.00000
     20      13.9970      2.00000
     21      14.6300      2.00000
     22      14.6300      2.00000
     23      16.0700      2.00000
     24      16.0700      2.00000
     25      16.0700      2.00000
     26      16.0700      2.00000
     27      16.5478      0.51436
     28      16.5478      0.51436
     29      17.4365     -0.00000
     30      17.4365     -0.00000

 k-point     6 :       0.1250    0.1250    0.0000
  band No.  band energies     occupation 
      1     -20.2176      2.00000
      2     -17.2691      2.00000
      3     -17.2691      2.00000
      4     -17.0982      2.00000
      5      -4.9603      2.00000
      6      -4.8115      2.00000
      7      -4.8115      2.00000
      8      -1.4969      2.00000
      9      -0.8275      2.00000
     10      -0.8275      2.00000
     11      -0.6346      2.00000
     12      -0.6346      2.00000
     13      -0.4767      2.00000
     14       1.7000      2.00000
     15       2.3442      2.00000
     16       2.6622      2.00000
     17      11.2816      2.00000
     18      11.4968      2.00000
     19      11.4968      2.00000
     20      12.0015      2.00000
     21      12.0015      2.00000
     22      12.6857      2.00000
     23      14.8136      2.00000
     24      16.6574     -0.06377
     25      16.7954     -0.00061
     26      16.9209     -0.00000
     27      17.1290     -0.00000
     28      17.1799     -0.00000
     29      17.1802     -0.00000
     30      17.2136     -0.00000

 k-point     7 :       0.2500    0.1250    0.0000
  band No.  band energies     occupation 
      1     -19.9456      2.00000
      2     -17.7221      2.00000
      3     -17.2328      2.00000
      4     -17.1015      2.00000
      5      -4.6085      2.00000
      6      -4.5554      2.00000
      7      -4.0761      2.00000
      8      -2.2499      2.00000
      9      -1.5308      2.00000
     10      -0.8128      2.00000
     11      -0.5322      2.00000
     12      -0.4747      2.00000
     13      -0.2709      2.00000
     14       0.6662      2.00000
     15       1.8630      2.00000
     16       2.3930      2.00000
     17      11.9121      2.00000
     18      12.1034      2.00000
     19      12.2728      2.00000
     20      12.5384      2.00000
     21      13.2426      2.00000
     22      14.1460      2.00000
     23      14.4505      2.00000
     24      16.2276      2.00032
     25      16.8719     -0.00001
     26      17.0507     -0.00000
     27      17.0540     -0.00000
     28      17.0548     -0.00000
     29      17.2833     -0.00000
     30      17.3516     -0.00000

 k-point     8 :       0.3750    0.1250    0.0000
  band No.  band energies     occupation 
      1     -19.5125      2.00000
      2     -18.3256      2.00000
      3     -17.1863      2.00000
      4     -17.1150      2.00000
      5      -4.1498      2.00000
      6      -4.0401      2.00000
      7      -3.0242      2.00000
      8      -2.9778      2.00000
      9      -2.4144      2.00000
     10      -0.9316      2.00000
     11      -0.6846      2.00000
     12      -0.5434      2.00000
     13      -0.0626      2.00000
     14       0.3029      2.00000
     15       1.2174      2.00000
     16       1.7785      2.00000
     17      12.7055      2.00000
     18      13.0570      2.00000
     19      13.1304      2.00000
     20      13.8374      2.00000
     21      13.8836      2.00000
     22      14.8165      2.00000
     23      15.3785      2.00000
     24      15.6341      2.00000
     25      16.6336     -0.06947
     26      16.7835     -0.00111
     27      17.0400     -0.00000
     28      17.0748     -0.00000
     29      17.0763     -0.00000
     30      17.2551     -0.00000

 k-point     9 :       0.5000    0.1250    0.0000
  band No.  band energies     occupation 
      1     -18.9529      2.00000
      2     -18.9529      2.00000
      3     -17.1436      2.00000
      4     -17.1436      2.00000
      5      -3.6180      2.00000
      6      -3.6180      2.00000
      7      -3.2882      2.00000
      8      -3.2882      2.00000
      9      -1.8071      2.00000
     10      -1.8071      2.00000
     11      -0.8852      2.00000
     12      -0.8852      2.00000
     13       0.5423      2.00000
     14       0.5423      2.00000
     15       1.0240      2.00000
     16       1.0240      2.00000
     17      13.2641      2.00000
     18      13.2641      2.00000
     19      14.2297      2.00000
     20      14.2297      2.00000
     21      14.2623      2.00000
     22      14.2623      2.00000
     23      16.1062      2.00000
     24      16.1062      2.00000
     25      16.4092      2.06363
     26      16.4092      2.06363
     27      16.6442     -0.07045
     28      16.6442     -0.07045
     29      17.2399     -0.00000
     30      17.2402     -0.00000

 k-point    10 :       0.2500    0.2500    0.0000
  band No.  band energies     occupation 
      1     -19.6880      2.00000
      2     -17.6343      2.00000
      3     -17.6343      2.00000
      4     -17.1565      2.00000
      5      -4.2600      2.00000
      6      -4.0781      2.00000
      7      -4.0781      2.00000
      8      -2.9954      2.00000
      9      -1.2222      2.00000
     10      -1.2222      2.00000
     11      -0.3800      2.00000
     12      -0.2572      2.00000
     13      -0.2572      2.00000
     14       0.0084      2.00000
     15       1.3325      2.00000
     16       2.5043      2.00000
     17      11.9204      2.00000
     18      13.0400      2.00000
     19      13.0400      2.00000
     20      13.4674      2.00000
     21      13.4674      2.00000
     22      14.6275      2.00000
     23      15.5602      2.00000
     24      16.1257      2.00000
     25      16.7513     -0.00466
     26      17.0255     -0.00000
     27      17.0255     -0.00000
     28      17.0396     -0.00000
     29      17.0422     -0.00000
     30      17.1328     -0.00000

 k-point    11 :       0.3750    0.2500    0.0000
  band No.  band energies     occupation 
      1     -19.2796      2.00000
      2     -18.1797      2.00000
      3     -17.5089      2.00000
      4     -17.2490      2.00000
      5      -4.0412      2.00000
      6      -3.6974      2.00000
      7      -3.5558      2.00000
      8      -3.3657      2.00000
      9      -2.0918      2.00000
     10      -1.4635      2.00000
     11      -0.7292      2.00000
     12      -0.1527      2.00000
     13       0.1406      2.00000
     14       0.5469      2.00000
     15       0.6322      2.00000
     16       2.1434      2.00000
     17      12.6723      2.00000
     18      13.8111      2.00000
     19      13.8164      2.00000
     20      14.0368      2.00000
     21      14.5468      2.00000
     22      14.9727      2.00000
     23      15.5740      2.00000
     24      16.4838      1.53880
     25      16.5047      1.21712
     26      16.7004     -0.02684
     27      16.8544     -0.00002
     28      16.8907     -0.00000
     29      17.1356     -0.00000
     30      17.1670     -0.00000

 k-point    12 :       0.5000    0.2500    0.0000
  band No.  band energies     occupation 
      1     -18.7571      2.00000
      2     -18.7571      2.00000
      3     -17.3720      2.00000
      4     -17.3720      2.00000
      5      -3.8925      2.00000
      6      -3.8925      2.00000
      7      -2.9541      2.00000
      8      -2.9541      2.00000
      9      -2.4784      2.00000
     10      -2.4784      2.00000
     11      -0.0895      2.00000
     12      -0.0895      2.00000
     13       0.0235      2.00000
     14       0.0235      2.00000
     15       1.4204      2.00000
     16       1.4204      2.00000
     17      13.7829      2.00000
     18      13.7829      2.00000
     19      14.2122      2.00000
     20      14.2122      2.00000
     21      14.7358      2.00000
     22      14.7358      2.00000
     23      16.2070      2.00010
     24      16.2070      2.00010
     25      16.6146     -0.04313
     26      16.6146     -0.04313
     27      16.7444     -0.00614
     28      16.7444     -0.00614
     29      17.0726     -0.00000
     30      17.0733     -0.00000

 k-point    13 :       0.3750    0.3750    0.0000
  band No.  band energies     occupation 
      1     -18.9147      2.00000
      2     -17.9616      2.00000
      3     -17.9616      2.00000
      4     -17.4558      2.00000
      5      -3.8853      2.00000
      6      -3.7174      2.00000
      7      -3.7174      2.00000
      8      -3.1449      2.00000
      9      -2.3773      2.00000
     10      -1.5745      2.00000
     11      -1.5745      2.00000
     12      -0.1272      2.00000
     13       0.7135      2.00000
     14       0.7973      2.00000
     15       0.7973      2.00000
     16       2.1183      2.00000
     17      12.8740      2.00000
     18      14.3222      2.00000
     19      14.3222      2.00000
     20      15.1647      2.00000
     21      15.1864      2.00000
     22      15.1864      2.00000
     23      15.2137      2.00000
     24      16.4697      1.71731
     25      16.4697      1.71731
     26      16.7762     -0.00157
     27      16.8644     -0.00001
     28      16.8885     -0.00000
     29      16.9352     -0.00000
     30      16.9527     -0.00000

 k-point    14 :       0.5000    0.3750    0.0000
  band No.  band energies     occupation 
      1     -18.4562      2.00000
      2     -18.4562      2.00000
      3     -17.7064      2.00000
      4     -17.7064      2.00000
      5      -3.9244      2.00000
      6      -3.9244      2.00000
      7      -3.1520      2.00000
      8      -3.1520      2.00000
      9      -2.4166      2.00000
     10      -2.4166      2.00000
     11      -0.8984      2.00000
     12      -0.8984      2.00000
     13       0.9058      2.00000
     14       0.9058      2.00000
     15       1.6322      2.00000
     16       1.6322      2.00000
     17      13.6619      2.00000
     18      13.6619      2.00000
     19      14.7029      2.00000
     20      14.7029      2.00000
     21      15.3411      2.00000
     22      15.3411      2.00000
     23      16.3309      2.02394
     24      16.3309      2.02394
     25      16.6249     -0.06213
     26      16.6249     -0.06213
     27      16.7497     -0.00498
     28      16.7497     -0.00498
     29      17.0407     -0.00000
     30      17.0588     -0.00000

 k-point    15 :       0.5000    0.5000    0.0000
  band No.  band energies     occupation 
      1     -18.0884      2.00000
      2     -18.0884      2.00000
      3     -18.0884      2.00000
      4     -18.0884      2.00000
      5      -3.6642      2.00000
      6      -3.6642      2.00000
      7      -3.6642      2.00000
      8      -3.6642      2.00000
      9      -1.7104      2.00000
     10      -1.7104      2.00000
     11      -1.7104      2.00000
     12      -1.7104      2.00000
     13       1.4802      2.00000
     14       1.4802      2.00000
     15       1.4802      2.00000
     16       1.4802      2.00000
     17      14.0435      2.00000
     18      14.0435      2.00000
     19      14.0435      2.00000
     20      14.0435      2.00000
     21      16.1826      2.00002
     22      16.1826      2.00002
     23      16.1826      2.00002
     24      16.1826      2.00002
     25      16.8471     -0.00003
     26      16.8471     -0.00003
     27      16.8555     -0.00002
     28      16.8653     -0.00001
     29      16.8847     -0.00000
     30      16.8847     -0.00000

 k-point    16 :       0.1250    0.1250    0.1250
  band No.  band energies     occupation 
      1     -20.1264      2.00000
      2     -17.2613      2.00000
      3     -17.2613      2.00000
      4     -17.2613      2.00000
      5      -4.7341      2.00000
      6      -4.7341      2.00000
      7      -4.7341      2.00000
      8      -1.3328      2.00000
      9      -1.3328      2.00000
     10      -1.3328      2.00000
     11      -0.3823      2.00000
     12      -0.3823      2.00000
     13      -0.3823      2.00000
     14       1.1035      2.00000
     15       2.5050      2.00000
     16       2.5050      2.00000
     17      11.4622      2.00000
     18      11.4622      2.00000
     19      11.4622      2.00000
     20      12.7893      2.00000
     21      12.7893      2.00000
     22      12.7893      2.00000
     23      14.6793      2.00000
     24      16.6463     -0.06984
     25      16.8384     -0.00006
     26      16.8384     -0.00006
     27      17.1628     -0.00000
     28      17.1629     -0.00000
     29      17.1630     -0.00000
     30      17.5076     -0.00000

 k-point    17 :       0.2500    0.1250    0.1250
  band No.  band energies     occupation 
      1     -19.8595      2.00000
      2     -17.6956      2.00000
      3     -17.2423      2.00000
      4     -17.2423      2.00000
      5      -4.5183      2.00000
      6      -4.5183      2.00000
      7      -4.1158      2.00000
      8      -1.9925      2.00000
      9      -1.9925      2.00000
     10      -0.8526      2.00000
     11      -0.3621      2.00000
     12      -0.3621      2.00000
     13      -0.1060      2.00000
     14       0.0606      2.00000
     15       2.0814      2.00000
     16       2.3218      2.00000
     17      11.9739      2.00000
     18      12.0742      2.00000
     19      12.0742      2.00000
     20      13.1091      2.00000
     21      14.2190      2.00000
     22      14.2190      2.00000
     23      14.4123      2.00000
     24      16.2785      2.00370
     25      16.8767     -0.00000
     26      16.9641     -0.00000
     27      17.0654     -0.00000
     28      17.0654     -0.00000
     29      17.1986     -0.00000
     30      17.2561     -0.00000

 k-point    18 :       0.3750    0.1250    0.1250
  band No.  band energies     occupation 
      1     -19.4349      2.00000
      2     -18.2784      2.00000
      3     -17.2231      2.00000
      4     -17.2231      2.00000
      5      -4.2297      2.00000
      6      -4.2297      2.00000
      7      -3.2337      2.00000
      8      -2.5567      2.00000
      9      -2.5567      2.00000
     10      -1.0780      2.00000
     11      -0.5042      2.00000
     12      -0.5042      2.00000
     13      -0.1052      2.00000
     14       0.3309      2.00000
     15       1.5032      2.00000
     16       1.6851      2.00000
     17      12.6964      2.00000
     18      13.2468      2.00000
     19      13.2468      2.00000
     20      13.6881      2.00000
     21      14.0010      2.00000
     22      15.5337      2.00000
     23      15.6295      2.00000
     24      15.6295      2.00000
     25      16.6633     -0.05907
     26      16.6633     -0.05907
     27      16.9558     -0.00000
     28      17.1154     -0.00000
     29      17.1170     -0.00000
     30      17.1505     -0.00000

 k-point    19 :       0.5000    0.1250    0.1250
  band No.  band energies     occupation 
      1     -18.8883      2.00000
      2     -18.8883      2.00000
      3     -17.2153      2.00000
      4     -17.2153      2.00000
      5      -4.0615      2.00000
      6      -4.0615      2.00000
      7      -2.8135      2.00000
      8      -2.8135      2.00000
      9      -2.1978      2.00000
     10      -2.1978      2.00000
     11      -0.5858      2.00000
     12      -0.5858      2.00000
     13       0.8000      2.00000
     14       0.8000      2.00000
     15       0.8885      2.00000
     16       0.8885      2.00000
     17      13.4133      2.00000
     18      13.4133      2.00000
     19      14.1028      2.00000
     20      14.1028      2.00000
     21      14.5639      2.00000
     22      14.5639      2.00000
     23      15.9515      2.00000
     24      15.9515      2.00000
     25      16.6521     -0.06719
     26      16.6521     -0.06719
[...]
      5      -5.1991      2.00000
      6      -4.9125      2.00000
      7      -4.9125      2.00000
      8      -3.9164      2.00000
      9      -0.8556      2.00000
     10      -0.1604      2.00000
     11      -0.1604      2.00000
     12       0.9167      2.00000
     13       0.9430      2.00000
     14       0.9430      2.00000
     15       1.2812      2.00000
     16       1.9130      2.00000
     17      13.4425      2.00000
     18      13.8657      2.00000
     19      13.8657      2.00000
     20      14.1226      2.00000
     21      15.5137      2.00000
     22      15.5169      2.00000
     23      15.5169      2.00000
     24      16.1399      2.00000
     25      16.7446     -0.00610
     26      16.7446     -0.00609
     27      16.9011     -0.00000
     28      16.9223     -0.00000
     29      17.0029     -0.00000
     30      17.0684     -0.00000

 k-point    30 :       0.5000    0.3750    0.2500
  band No.  band energies     occupation 
      1     -18.3101      2.00000
      2     -18.3101      2.00000
      3     -17.7712      2.00000
      4     -17.7712      2.00000
      5      -5.2172      2.00000
      6      -5.2172      2.00000
      7      -4.5768      2.00000
      8      -4.5768      2.00000
      9      -0.4517      2.00000
     10      -0.4517      2.00000
     11       0.6927      2.00000
     12       0.6927      2.00000
     13       1.0739      2.00000
     14       1.0739      2.00000
     15       1.5326      2.00000
     16       1.5326      2.00000
     17      14.1138      2.00000
     18      14.1138      2.00000
     19      14.3633      2.00000
     20      14.3633      2.00000
     21      15.0753      2.00000
     22      15.0753      2.00000
     23      15.3287      2.00000
     24      15.3287      2.00000
     25      16.9056     -0.00000
     26      16.9056     -0.00000
     27      16.9063     -0.00000
     28      16.9063     -0.00000
     29      17.0807     -0.00000
     30      17.0814     -0.00000

 k-point    31 :       0.5000    0.5000    0.2500
  band No.  band energies     occupation 
      1     -18.0369      2.00000
      2     -18.0369      2.00000
      3     -18.0369      2.00000
      4     -18.0369      2.00000
      5      -5.0693      2.00000
      6      -5.0693      2.00000
      7      -5.0693      2.00000
      8      -5.0693      2.00000
      9       0.1815      2.00000
     10       0.1815      2.00000
     11       0.1815      2.00000
     12       0.1815      2.00000
     13       1.5059      2.00000
     14       1.5059      2.00000
     15       1.5059      2.00000
     16       1.5059      2.00000
     17      14.4921      2.00000
     18      14.4921      2.00000
     19      14.4921      2.00000
     20      14.4921      2.00000
     21      14.9625      2.00000
     22      14.9625      2.00000
     23      14.9625      2.00000
     24      14.9625      2.00000
     25      16.9575     -0.00000
     26      16.9576     -0.00000
     27      16.9577     -0.00000
     28      16.9581     -0.00000
     29      17.0486     -0.00000
     30      17.0496     -0.00000

 k-point    32 :       0.3750    0.3750    0.3750
  band No.  band energies     occupation 
      1     -18.4466      2.00000
      2     -17.8787      2.00000
      3     -17.8787      2.00000
      4     -17.8787      2.00000
      5      -5.4388      2.00000
      6      -5.4388      2.00000
      7      -5.4388      2.00000
      8      -4.7414      2.00000
      9       0.4288      2.00000
     10       0.4288      2.00000
     11       0.4288      2.00000
     12       1.1438      2.00000
     13       1.1438      2.00000
     14       1.1438      2.00000
     15       1.6841      2.00000
     16       1.6841      2.00000
     17      13.7792      2.00000
     18      14.0154      2.00000
     19      14.0154      2.00000
     20      14.0154      2.00000
     21      15.2489      2.00000
     22      15.2489      2.00000
     23      15.2489      2.00000
     24      15.5952      2.00000
     25      16.9731     -0.00000
     26      16.9744     -0.00000
     27      16.9966     -0.00000
     28      17.0057     -0.00000
     29      17.0205     -0.00000
     30      17.0499     -0.00000

 k-point    33 :       0.5000    0.3750    0.3750
  band No.  band energies     occupation 
      1     -18.1592      2.00000
      2     -18.1592      2.00000
      3     -17.8641      2.00000
      4     -17.8641      2.00000
      5      -5.6258      2.00000
      6      -5.6258      2.00000
      7      -5.2746      2.00000
      8      -5.2746      2.00000
      9       0.5887      2.00000
     10       0.5887      2.00000
     11       1.2812      2.00000
     12       1.2812      2.00000
     13       1.3714      2.00000
     14       1.3714      2.00000
     15       1.4135      2.00000
     16       1.4135      2.00000
     17      14.0041      2.00000
     18      14.0041      2.00000
     19      14.5674      2.00000
     20      14.5674      2.00000
     21      14.5983      2.00000
     22      14.5983      2.00000
     23      15.1829      2.00000
     24      15.1829      2.00000
     25      16.9784     -0.00000
     26      16.9794     -0.00000
     27      17.0632     -0.00000
     28      17.0646     -0.00000
     29      17.0694     -0.00000
     30      17.0789     -0.00000

 k-point    34 :       0.5000    0.5000    0.3750
  band No.  band energies     occupation 
      1     -17.9997      2.00000
      2     -17.9997      2.00000
      3     -17.9997      2.00000
      4     -17.9997      2.00000
      5      -5.6443      2.00000
      6      -5.6443      2.00000
      7      -5.6443      2.00000
      8      -5.6443      2.00000
      9       1.1507      2.00000
     10       1.1507      2.00000
     11       1.1507      2.00000
     12       1.1507      2.00000
     13       1.5242      2.00000
     14       1.5242      2.00000
     15       1.5242      2.00000
     16       1.5242      2.00000
     17      14.0560      2.00000
     18      14.0560      2.00000
     19      14.0560      2.00000
     20      14.0560      2.00000
     21      15.0468      2.00000
     22      15.0468      2.00000
     23      15.0468      2.00000
     24      15.0468      2.00000
     25      17.0561     -0.00000
     26      17.0564     -0.00000
     27      17.0595     -0.00000
     28      17.0654     -0.00000
     29      17.0924     -0.00000
     30      17.0975     -0.00000

 k-point    35 :       0.5000    0.5000    0.5000
  band No.  band energies     occupation 
      1     -17.9840      2.00000
      2     -17.9840      2.00000
      3     -17.9840      2.00000
      4     -17.9840      2.00000
      5      -5.8462      2.00000
      6      -5.8462      2.00000
      7      -5.8462      2.00000
      8      -5.8462      2.00000
      9       1.5318      2.00000
     10       1.5318      2.00000
     11       1.5318      2.00000
     12       1.5318      2.00000
     13       1.5318      2.00000
     14       1.5318      2.00000
     15       1.5318      2.00000
     16       1.5318      2.00000
     17      13.7151      2.00000
     18      13.7151      2.00000
     19      13.7151      2.00000
     20      13.7151      2.00000
     21      15.3291      2.00000
     22      15.3291      2.00000
     23      15.3291      2.00000
     24      15.3291      2.00000
     25      17.1626     -0.00000
     26      17.1628     -0.00000
     27      17.1629     -0.00000
     28      17.1630     -0.00000
     29      17.1630     -0.00000
     30      17.1630     -0.00000


--------------------------------------------------------------------------------------------------------


 soft charge-density along one line, spin component           1
         0         1         2         3         4         5         6         7         8         9
 total charge-density along one line
 
 pseudopotential strength for first ion, spin component:           1
 21.445 -15.284   0.000  -0.000   0.000  -0.000   0.000  -0.000
-15.284   7.173  -0.000   0.000  -0.000   0.000  -0.000  -0.000
  0.000  -0.000   9.767  -0.000  -0.000  -5.363   0.000   0.000
 -0.000   0.000  -0.000   9.767   0.000   0.000  -5.363  -0.000
  0.000  -0.000  -0.000   0.000   9.767   0.000  -0.000  -5.363
 -0.000   0.000  -5.363   0.000   0.000  14.457   0.000  -0.000
  0.000  -0.000   0.000  -5.363  -0.000   0.000  14.457  -0.000
 -0.000  -0.000   0.000  -0.000  -5.363  -0.000  -0.000  14.457
 -0.000  -0.000  -0.000   0.000   0.000  -0.000   0.000   0.000
 -0.000   0.000  -0.000   0.000   0.000  -0.000  -0.000   0.000
 -0.000   0.000  -0.000  -0.000  -0.000  -0.000  -0.000   0.000
  0.000  -0.000   0.000  -0.000  -0.000   0.000  -0.000  -0.000
 -0.000  -0.000  -0.000  -0.000   0.000   0.000  -0.000  -0.000
  0.000   0.000  -0.000  -0.000  -0.000   0.000  -0.000  -0.000
  0.000  -0.000   0.000  -0.000  -0.000   0.000   0.000  -0.000
  0.000  -0.000   0.000   0.000   0.000   0.000   0.000  -0.000
 -0.000   0.000  -0.000  -0.000   0.000  -0.000   0.000   0.000
  0.000  -0.000   0.000   0.000  -0.000  -0.000   0.000   0.000
 -0.000   0.000  -0.002  -0.000   0.000   0.000   0.000  -0.000
 -0.000   0.000  -0.000   0.000   0.000   0.000  -0.000  -0.000
  0.000  -0.000  -0.002   0.000  -0.000   0.000  -0.000   0.000
 -0.000   0.000  -0.000   0.003   0.000   0.000  -0.000  -0.000
  0.000   0.000  -0.000  -0.000  -0.002   0.000   0.000   0.000
  0.000  -0.000  -0.000   0.000  -0.000   0.000   0.000   0.000
 -0.000   0.000   0.000  -0.000   0.002  -0.000   0.000  -0.000
 -0.000   0.000  -0.002  -0.000   0.000   0.000   0.000  -0.000
 -0.000   0.000  -0.000   0.000   0.000   0.000  -0.000  -0.000
  0.000  -0.000  -0.002   0.000  -0.000   0.000  -0.000   0.000
 -0.000   0.000  -0.000   0.003   0.000   0.000  -0.000  -0.000
 -0.000  -0.000  -0.000  -0.000  -0.002   0.000   0.000   0.000
  0.000  -0.000  -0.000   0.000  -0.000   0.000  -0.000   0.000
 -0.000   0.000   0.000  -0.000   0.002  -0.000   0.000  -0.000
 total augmentation occupancy for first ion, spin component:           1
  1.990   0.026   0.000   0.000   0.000   0.000   0.000   0.000   0.000   0.000   0.000   0.000  -0.000   0.000   0.000  -0.000
  0.026   0.896   0.000   0.000   0.000   0.000   0.000   0.000  -0.000  -0.000   0.000   0.000  -0.000   0.000   0.000   0.000
  0.000   0.000   1.948   0.000  -0.000   0.022   0.000   0.000   0.000  -0.000   0.000   0.000  -0.000   0.000   0.000   0.000
  0.000   0.000  -0.000   1.948   0.000  -0.000   0.022  -0.000   0.000   0.000  -0.000   0.000  -0.000   0.000   0.000  -0.000
  0.000   0.000   0.000   0.000   1.948  -0.000   0.000   0.022  -0.000   0.000   0.000   0.000   0.000  -0.000   0.000   0.000
  0.000   0.000   0.022  -0.000   0.000   0.009  -0.000  -0.000   0.000  -0.000  -0.000   0.000   0.000  -0.000   0.000   0.000
  0.000   0.000   0.000   0.022   0.000  -0.000   0.009  -0.000  -0.000  -0.000   0.000   0.000   0.000   0.000   0.000  -0.000
  0.000   0.000   0.000  -0.000   0.022   0.000  -0.000   0.009  -0.000   0.000   0.000  -0.000   0.000  -0.000  -0.000   0.000
  0.000  -0.000   0.000   0.000  -0.000   0.000  -0.000  -0.000   1.138  -0.000  -0.000  -0.000   0.000   0.186   0.000   0.000
 -0.000  -0.000  -0.000   0.000   0.000  -0.000  -0.000   0.000   0.000   1.138   0.000   0.000  -0.000  -0.000   0.186  -0.000
  0.000   0.000  -0.000  -0.000  -0.000   0.000   0.000   0.000   0.000   0.000   1.032   0.000  -0.000   0.000   0.000   0.171
 -0.000   0.000   0.000   0.000   0.000   0.000   0.000  -0.000  -0.000   0.000   0.000   1.138  -0.000  -0.000  -0.000  -0.000
  0.000  -0.000  -0.000  -0.000  -0.000   0.000  -0.000  -0.000  -0.000  -0.000  -0.000   0.000   1.032  -0.000   0.000   0.000
  0.000  -0.000   0.000   0.000  -0.000  -0.000   0.000  -0.000   0.186  -0.000   0.000  -0.000  -0.000   0.035  -0.000  -0.000
  0.000  -0.000   0.000   0.000   0.000   0.000   0.000  -0.000  -0.000   0.186   0.000  -0.000   0.000   0.000   0.035  -0.000
 -0.000  -0.000   0.000   0.000   0.000  -0.000   0.000  -0.000   0.000   0.000   0.171  -0.000   0.000   0.000  -0.000   0.031
 -0.000   0.000  -0.000   0.000  -0.000   0.000  -0.000  -0.000   0.000  -0.000   0.000   0.186  -0.000  -0.000  -0.000   0.000
  0.000  -0.000   0.000  -0.000  -0.000   0.000   0.000  -0.000  -0.000  -0.000   0.000   0.000   0.171   0.000   0.000  -0.000
  0.000   0.000  -0.071   0.000  -0.000  -0.003  -0.000   0.000   0.000  -0.000   0.000   0.000  -0.000  -0.000  -0.000   0.000
  0.000   0.000   0.000   0.000   0.000  -0.000  -0.000  -0.000  -0.000   0.000   0.000  -0.000   0.000   0.000   0.000   0.000
  0.000   0.000  -0.055   0.000   0.000  -0.002   0.000   0.000  -0.000   0.000   0.000   0.000   0.000  -0.000  -0.000  -0.000
 -0.000   0.000   0.000   0.089  -0.000   0.000   0.004   0.000  -0.000   0.000  -0.000  -0.000  -0.000  -0.000   0.000   0.000
  0.000   0.000  -0.000   0.000  -0.055   0.000   0.000  -0.002   0.000  -0.000  -0.000   0.000   0.000  -0.000  -0.000   0.000
 -0.000   0.000   0.000   0.000  -0.000  -0.000   0.000   0.000  -0.000   0.000   0.000  -0.000   0.000  -0.000  -0.000  -0.000
  0.000   0.000   0.000  -0.000   0.071  -0.000   0.000   0.003  -0.000   0.000   0.000  -0.000  -0.000   0.000  -0.000   0.000
  0.000  -0.000   0.075  -0.000   0.000   0.003   0.000   0.000  -0.000  -0.000  -0.000  -0.000  -0.000  -0.000   0.000  -0.000
  0.000  -0.000  -0.000  -0.000   0.000  -0.000  -0.000  -0.000  -0.000   0.000   0.000   0.000   0.000   0.000   0.000   0.000
 -0.000   0.000   0.058   0.000   0.000   0.002   0.000  -0.000   0.000  -0.000   0.000   0.000   0.000  -0.000   0.000  -0.000
 -0.000  -0.000  -0.000  -0.094  -0.000  -0.000  -0.004  -0.000   0.000  -0.000   0.000   0.000   0.000  -0.000  -0.000  -0.000
  0.000   0.000   0.000   0.000   0.058   0.000   0.000   0.002  -0.000   0.000  -0.000   0.000  -0.000  -0.000   0.000  -0.000
  0.000   0.000   0.000   0.000  -0.000   0.000  -0.000   0.000   0.000   0.000   0.000  -0.000   0.000  -0.000   0.000   0.000
 -0.000   0.000   0.000   0.000  -0.075   0.000  -0.000  -0.003  -0.000  -0.000  -0.000  -0.000   0.000   0.000   0.000   0.000


------------------------ aborting loop because EDIFF is reached ----------------------------------------


    CHARGE:  cpu time      0.0162: real time      0.0163
    FORLOC:  cpu time      0.0002: real time      0.0002
    FORNL :  cpu time      0.0611: real time      0.0615
    STRESS:  cpu time      0.1766: real time      0.1786
    FORCOR:  cpu time      0.0043: real time      0.0055
    FORHAR:  cpu time      0.0016: real time      0.0030
    MIXING:  cpu time      0.0004: real time      0.0004
    OFIELD:  cpu time      0.0002: real time      0.0005

  FORCE on cell =-STRESS in cart. coord.  units (eV):
  Direction    XX          YY          ZZ          XY          YZ          ZX
  --------------------------------------------------------------------------------------
  Alpha Z   521.23104   521.23104   521.23104
  Ewald   -1579.53033 -1579.53033 -1579.53033    -0.00000     0.00000     0.00000
  Hartree    78.10922    78.10922    78.10922    -0.00000    -0.00000    -0.00000
  E(xc)    -227.99165  -227.99165  -227.99165     0.00000     0.00000    -0.00000
  Local     176.61311   176.61311   176.61311    -0.00000     0.00000     0.00000
  n-local   230.51753   245.97412   263.49302    -1.27668     3.92961     1.44815
  augment   -74.14699   -74.14699   -74.14699    -0.00000    -0.00000    -0.00000
  Kinetic   924.05850   881.32309   852.36728     3.84040   -11.55586    -3.24909
  Fock        0.00000     0.00000     0.00000     0.00000     0.00000     0.00000
  -------------------------------------------------------------------------------------
  Total      26.86224    26.86224    26.86224     0.00000    -0.00000     0.00000
  in kB     666.15509   666.15509   666.15509     0.00000    -0.00000     0.00000
  external pressure =      666.16 kB  Pullay stress =        0.00 kB


 VOLUME and BASIS-vectors are now :
 -----------------------------------------------------------------------------
  energy-cutoff  :      520.00
  volume of cell :       64.61
      direct lattice vectors                 reciprocal lattice vectors
     4.012599430  0.000000000  0.000000000     0.249215008  0.000000000  0.000000000
     0.000000000  4.012599430  0.000000000     0.000000000  0.249215008  0.000000000
     0.000000000  0.000000000  4.012599430     0.000000000  0.000000000  0.249215008

  length of vectors
     4.012599430  4.012599430  4.012599430     0.249215008  0.249215008  0.249215008


 FORCES acting on ions
    electron-ion (+dipol)            ewald-force                    non-local-force                 convergence-correction
 -----------------------------------------------------------------------------------------------
   -.981E-14 0.220E-14 0.397E-14   -.143E-13 -.165E-13 -.469E-14   -.297E-21 -.473E-21 0.118E-20   0.413E-13 0.421E-14 -.211E-13
   -.874E-14 0.520E-13 0.576E-13   -.146E-13 0.214E-13 0.481E-14   0.116E-21 0.136E-21 -.550E-21   0.446E-13 0.197E-14 0.211E-13
   0.598E-13 0.320E-14 -.151E-12   0.133E-13 -.197E-13 0.471E-14   -.475E-21 0.178E-22 0.170E-21   -.366E-13 0.157E-14 0.227E-13
   0.587E-13 0.130E-11 -.998E-12   0.130E-13 0.182E-13 -.755E-14   -.189E-21 0.884E-22 -.197E-21   -.381E-13 0.523E-14 -.184E-13
 -----------------------------------------------------------------------------------------------
   0.100E-12 0.135E-11 -.109E-11   -.256E-14 0.343E-14 -.272E-14   -.845E-21 -.231E-21 0.607E-21   0.112E-13 0.130E-13 0.429E-14
 
 
 POSITION                                       TOTAL-FORCE (eV/Angst)
 -----------------------------------------------------------------------------------
      0.00000      0.00000      0.00000        -0.000000      0.000000     -0.000000
      0.00000      2.00630      2.00630        -0.000000      0.000000      0.000000
      2.00630      0.00000      2.00630         0.000000     -0.000000      0.000000
      2.00630      2.00630      0.00000         0.000000      0.000000      0.000000
 -----------------------------------------------------------------------------------
    total drift:                                0.000000      0.000000     -0.000000


--------------------------------------------------------------------------------------------------------



  FREE ENERGIE OF THE ION-ELECTRON SYSTEM (eV)
  ---------------------------------------------------
  free  energy   TOTEN  =       -18.73824303 eV

  energy  without entropy=      -18.73696604  energy(sigma->0) =      -18.73781737
 


--------------------------------------------------------------------------------------------------------


    POTLOK:  cpu time      0.2807: real time      0.2817


--------------------------------------------------------------------------------------------------------


     LOOP+:  cpu time     10.8310: real time     11.1427
    4ORBIT:  cpu time      0.0000: real time      0.0000

 total amount of memory used by VASP MPI-rank0    31919. kBytes
=======================================================================

   base      :      30000. kBytes
   nonlr-proj:        991. kBytes
   fftplans  :        194. kBytes
   grid      :        249. kBytes
   one-center:         49. kBytes
   wavefun   :        436. kBytes
 
  
  
 General timing and accounting informations for this job:
 ========================================================
  
                  Total CPU time used (sec):       12.600
                            User time (sec):       11.454
                          System time (sec):        1.146
                         Elapsed time (sec):       13.405
  
                   Maximum memory used (kb):      241996.
                   Average memory used (kb):          N/A
  
                          Minor page faults:        48580
                          Major page faults:           11
                 Voluntary context switches:         5626
