<?xml version="1.0" encoding="ISO-8859-1"?>
<modeling>
 <generator>
  <i name="program" type="string">vasp </i>
  <i name="version" type="string">6.3.0  </i>
  <i name="subversion" type="string">20Jan22 (build Mar 25 2022 12:20:17) complex                          parallel </i>
  <i name="platform" type="string">LinuxIFC </i>
  <i name="date" type="string">2023 08 20 </i>
  <i name="time" type="string">13:25:47 </i>
 </generator>
 <incar>
  <i type="string" name="PREC">Accurate</i>
  <i type="string" name="ALGO">normal</i>
  <i type="int" name="NELM">   400</i>
  <i name="EDIFF">      0.00001000</i>
  <i type="int" name="NSW">     0</i>
  <i type="int" name="ISIF">     2</i>
  <i name="ENCUT">    520.00000000</i>
  <i type="string" name="LREAL">Auto</i>
  <i type="int" name="ISMEAR">     1</i>
  <i name="SIGMA">      0.10000000</i>
  <i name="KSPACING">      0.20000000</i>
  <i type="logical" name="LWAVE"> F  </i>
  <i type="logical" name="LCHARG"> F  </i>
  <i type="logical" name="LASPH"> T  </i>
 </incar>
 <primitive_cell>
  <structure name="primitive_cell" >
   <crystal>
    <varray name="basis" >
     <v>       2.00629971      -2.00629971       0.00000000 </v>
     <v>       2.00629971       0.00000000       2.00629971 </v>
     <v>       0.00000000      -2.00629971       2.00629971 </v>
    </varray>
    <i name="volume">     16.15166989 </i>
    <varray name="rec_basis" >
     <v>       0.24921501      -0.24921501      -0.24921501 </v>
     <v>       0.24921501       0.24921501       0.24921501 </v>
     <v>      -0.24921501      -0.24921501       0.24921501 </v>
    </varray>
   </crystal>
   <varray name="positions" >
    <v>       0.00000000       0.00000000       0.00000000 </v>
   </varray>
  </structure>
  <varray name="primitive_index" >
   <v type="int" >        1 </v>
  </varray>
 </primitive_cell>
 <kpoints>
  <generation param="Gamma">
   <v type="int" name="divisions">       8        8        8 </v>
   <v name="usershift">      0.00000000       0.00000000       0.00000000 </v>
   <v name="genvec1">      0.12500000       0.00000000       0.00000000 </v>
   <v name="genvec2">      0.00000000       0.12500000       0.00000000 </v>
   <v name="genvec3">      0.00000000       0.00000000       0.12500000 </v>
   <v name="shift">      0.00000000       0.00000000       0.00000000 </v>
  </generation>
  <varray name="kpointlist" >
   <v>       0.00000000       0.00000000       0.00000000 </v>
   <v>       0.12500000       0.00000000       0.00000000 </v>
   <v>       0.25000000       0.00000000       0.00000000 </v>
   <v>       0.37500000       0.00000000       0.00000000 </v>
   <v>       0.50000000       0.00000000       0.00000000 </v>
   <v>       0.12500000       0.12500000       0.00000000 </v>
   <v>       0.25000000       0.12500000       0.00000000 </v>
   <v>       0.37500000       0.12500000       0.00000000 </v>
   <v>       0.50000000       0.12500000       0.00000000 </v>
   <v>       0.25000000       0.25000000       0.00000000 </v>
   <v>       0.37500000       0.25000000       0.00000000 </v>
   <v>       0.50000000       0.25000000       0.00000000 </v>
   <v>       0.37500000       0.37500000       0.00000000 </v>
   <v>       0.50000000       0.37500000       0.00000000 </v>
   <v>       0.50000000       0.50000000       0.00000000 </v>
   <v>       0.12500000       0.12500000       0.12500000 </v>
   <v>       0.25000000       0.12500000       0.12500000 </v>
   <v>       0.37500000       0.12500000       0.12500000 </v>
   <v>       0.50000000       0.12500000       0.12500000 </v>
   <v>       0.25000000       0.25000000       0.12500000 </v>
   <v>       0.37500000       0.25000000       0.12500000 </v>
   <v>       0.50000000       0.25000000       0.12500000 </v>
   <v>       0.37500000       0.37500000       0.12500000 </v>
   <v>       0.50000000       0.37500000       0.12500000 </v>
   <v>       0.50000000       0.50000000       0.12500000 </v>
   <v>       0.25000000       0.25000000       0.25000000 </v>
   <v>       0.37500000       0.25000000       0.25000000 </v>
   <v>       0.50000000       0.25000000       0.25000000 </v>
   <v>       0.37500000       0.37500000       0.25000000 </v>
   <v>       0.50000000       0.37500000       0.25000000 </v>
   <v>       0.50000000       0.50000000       0.25000000 </v>
   <v>       0.37500000       0.37500000       0.37500000 </v>
   <v>       0.50000000       0.37500000       0.37500000 </v>
   <v>       0.50000000       0.50000000       0.37500000 </v>
   <v>       0.50000000       0.50000000       0.50000000 </v>
  </varray>
  <varray name="weights" >
   <v>       0.00195312 </v>
   <v>       0.01171875 </v>
   <v>       0.01171875 </v>
   <v>       0.01171875 </v>
   <v>       0.00585938 </v>
   <v>       0.02343750 </v>
   <v>       0.04687500 </v>
   <v>       0.04687500 </v>
   <v>       0.02343750 </v>
   <v>       0.02343750 </v>
   <v>       0.04687500 </v>
   <v>       0.02343750 </v>
   <v>       0.02343750 </v>
   <v>       0.02343750 </v>
   <v>       0.00585938 </v>
   <v>       0.01562500 </v>
   <v>       0.04687500 </v>
   <v>       0.04687500 </v>
   <v>       0.02343750 </v>
   <v>       0.04687500 </v>
   <v>       0.09375000 </v>
   <v>       0.04687500 </v>
   <v>       0.04687500 </v>
   <v>       0.04687500 </v>
   <v>       0.01171875 </v>
   <v>       0.01562500 </v>
   <v>       0.04687500 </v>
   <v>       0.02343750 </v>
   <v>       0.04687500 </v>
   <v>       0.04687500 </v>
   <v>       0.01171875 </v>
   <v>       0.01562500 </v>
   <v>       0.02343750 </v>
   <v>       0.01171875 </v>
   <v>       0.00195312 </v>
  </varray>
 </kpoints>
 <parameters>
  <separator name="general" >
   <i type="string" name="SYSTEM">unknown system</i>
   <i type="logical" name="LCOMPAT"> F  </i>
  </separator>
  <separator name="electronic" >
   <i type="string" name="PREC">accura</i>
   <i name="ENMAX">    520.00000000</i>
   <i name="ENAUG">    580.19600000</i>
   <i name="EDIFF">      0.00001000</i>
   <i type="int" name="IALGO">    38</i>
   <i type="int" name="IWAVPR">    10</i>
   <i type="int" name="NBANDS">    30</i>
   <i type="int" name="NBANDSLOW">    -1</i>
   <i type="int" name="NBANDSHIGH">    -1</i>
   <i name="NELECT">     48.00000000</i>
   <i type="int" name="TURBO">     0</i>
   <i type="int" name="IRESTART">     0</i>
   <i type="int" name="NREBOOT">     0</i>
   <i type="int" name="NMIN">     0</i>
   <i name="EREF">      0.00000000</i>
   <separator name="electronic smearing" >
    <i type="int" name="ISMEAR">     1</i>
    <i name="SIGMA">      0.10000000</i>
    <i name="KSPACING">      0.20000000</i>
    <i type="logical" name="KGAMMA"> T  </i>
    <i type="logical" name="KBLOWUP"> T  </i>
   </separator>
   <separator name="electronic projectors" >
    <i type="logical" name="LREAL"> T  </i>
    <v name="ROPT">     -0.00025000</v>
    <i type="int" name="LMAXPAW">  -100</i>
    <i type="int" name="LMAXMIX">     2</i>
    <i type="logical" name="NLSPLINE"> F  </i>
   </separator>
   <separator name="electronic startup" >
    <i type="int" name="ISTART">     0</i>
    <i type="int" name="ICHARG">     2</i>
    <i type="int" name="INIWAV">     1</i>
   </separator>
   <separator name="electronic spin" >
    <i type="int" name="ISPIN">     1</i>
    <i type="logical" name="LNONCOLLINEAR"> F  </i>
    <v name="MAGMOM">      1.00000000      1.00000000      1.00000000      1.00000000</v>
    <i name="NUPDOWN">     -1.00000000</i>
    <i type="logical" name="LSORBIT"> F  </i>
    <v name="SAXIS">      0.00000000      0.00000000      1.00000000</v>
    <i type="logical" name="LSPIRAL"> F  </i>
    <v name="QSPIRAL">      0.00000000      0.00000000      0.00000000</v>
    <i type="logical" name="LZEROZ"> F  </i>
   </separator>
   <separator name="electronic exchange-correlation" >
    <i type="logical" name="LASPH"> T  </i>
    <i type="logical" name="LMETAGGA"> F  </i>
   </separator>
   <separator name="electronic convergence" >
    <i type="int" name="NELM">   400</i>
    <i type="int" name="NELMDL">    -5</i>
    <i type="int" name="NELMIN">     2</i>
    <i name="ENINI">    520.00000000</i>
    <separator name="electronic convergence detail" >
     <i type="logical" name="LDIAG"> T  </i>
     <i type="logical" name="LSUBROT"> F  </i>
     <i name="WEIMIN">      0.00000000</i>
     <i name="EBREAK">      0.00000008</i>
     <i name="DEPER">      0.30000000</i>
     <i type="int" name="NRMM">     4</i>
     <i name="TIME">      0.40000000</i>
    </separator>
   </separator>
   <separator name="electronic mixer" >
    <i name="AMIX">      0.40000000</i>
    <i name="BMIX">      1.00000000</i>
    <i name="AMIN">      0.10000000</i>
    <i name="AMIX_MAG">      1.60000000</i>
    <i name="BMIX_MAG">      1.00000000</i>
    <separator name="electronic mixer details" >
     <i type="int" name="IMIX">     4</i>
     <i type="logical" name="MIXFIRST"> F  </i>
     <i type="int" name="MAXMIX">   -45</i>
     <i name="WC">    100.00000000</i>
     <i type="int" name="INIMIX">     1</i>
     <i type="int" name="MIXPRE">     1</i>
     <i type="int" name="MREMOVE">     5</i>
    </separator>
   </separator>
   <separator name="electronic dipolcorrection" >
    <i type="logical" name="LDIPOL"> F  </i>
    <i type="logical" name="LMONO"> F  </i>
    <i type="int" name="IDIPOL">     0</i>
    <i name="EPSILON">      1.00000000</i>
    <v name="DIPOL">   -100.00000000   -100.00000000   -100.00000000</v>
    <i name="EFIELD">      0.00000000</i>
   </separator>
  </separator>
  <separator name="grids" >
   <i type="int" name="NGX">    30</i>
   <i type="int" name="NGY">    30</i>
   <i type="int" name="NGZ">    30</i>
   <i type="int" name="NGXF">    60</i>
   <i type="int" name="NGYF">    60</i>
   <i type="int" name="NGZF">    60</i>
   <i type="logical" name="ADDGRID"> F  </i>
  </separator>
  <separator name="ionic" >
   <i type="int" name="NSW">     0</i>
   <i type="int" name="IBRION">    -1</i>
   <i type="int" name="MDALGO">     0</i>
   <i type="int" name="ISIF">     2</i>
   <i name="PSTRESS">      0.00000000</i>
   <i name="EDIFFG">      0.00010000</i>
   <i type="int" name="NFREE">     0</i>
   <i name="POTIM">      0.50000000</i>
   <i name="SMASS">     -3.00000000</i>
   <i name="SCALEE">      1.00000000</i>
  </separator>
  <separator name="ionic md" >
   <i name="TEBEG">      0.00010000</i>
   <i name="TEEND">      0.00010000</i>
   <i type="int" name="NBLOCK">     1</i>
   <i type="int" name="KBLOCK">     1</i>
   <i type="int" name="NPACO">   256</i>
   <i name="APACO">     10.00000000</i>
  </separator>
  <separator name="symmetry" >
   <i type="int" name="ISYM">     2</i>
   <i name="SYMPREC">      0.00001000</i>
  </separator>
  <separator name="dos" >
   <i type="int" name="LORBIT">     0</i>
   <v name="RWIGS">     -1.00000000</v>
   <i type="int" name="NEDOS">   301</i>
   <i name="EMIN">     10.00000000</i>
   <i name="EMAX">    -10.00000000</i>
   <i name="EFERMI">      0.00000000</i>
  </separator>
  <separator name="writing" >
   <i type="int" name="NWRITE">     2</i>
   <i type="logical" name="LWAVE"> F  </i>
   <i type="logical" name="LDOWNSAMPLE"> F  </i>
   <i type="logical" name="LCHARG"> F  </i>
   <i type="logical" name="LPARD"> F  </i>
   <i type="logical" name="LVTOT"> F  </i>
   <i type="logical" name="LVHAR"> F  </i>
   <i type="logical" name="LELF"> F  </i>
   <i type="logical" name="LOPTICS"> F  </i>
   <v name="STM">      0.00000000      0.00000000      0.00000000      0.00000000      0.00000000      0.00000000      0.00000000</v>
  </separator>
  <separator name="performance" >
   <i type="int" name="NPAR">     6</i>
   <i type="int" name="NSIM">     4</i>
   <i type="int" name="NBLK">    -1</i>
   <i type="logical" name="LPLANE"> T  </i>
   <i type="logical" name="LSCALAPACK"> T  </i>
   <i type="logical" name="LSCAAWARE"> T  </i>
   <i type="logical" name="LSCALU"> F  </i>
   <i type="logical" name="LASYNC"> F  </i>
   <i type="logical" name="LORBITALREAL"> F  </i>
  </separator>
  <separator name="miscellaneous" >
   <i type="int" name="IDIOT">     3</i>
   <i type="int" name="PHON_NSTRUCT">    -1</i>
   <i type="logical" name="LMUSIC"> F  </i>
   <v name="POMASS">    140.11500000</v>
   <v name="DARWINR">      0.00000000</v>
   <v name="DARWINV">      1.00000000</v>
   <i type="logical" name="LCORR"> T  </i>
  </separator>
  <i type="logical" name="GGA_COMPAT"> T  </i>
  <i type="logical" name="LBERRY"> F  </i>
  <i type="int" name="ICORELEVEL">     0</i>
  <i type="logical" name="LDAU"> F  </i>
  <i type="int" name="I_CONSTRAINED_M">     0</i>
  <separator name="electronic exchange-correlation" >
   <i type="string" name="GGA">--</i>
   <i type="int" name="VOSKOWN">     0</i>
   <i type="logical" name="LHFCALC"> F  </i>
   <i type="string" name="PRECFOCK"></i>
   <i type="logical" name="LSYMGRAD"> F  </i>
   <i type="logical" name="LHFONE"> F  </i>
   <i type="logical" name="LRHFCALC"> F  </i>
   <i type="logical" name="LTHOMAS"> F  </i>
   <i type="logical" name="LMODELHF"> F  </i>
   <i type="logical" name="LFOCKACE"> F  </i>
   <i name="ENCUT4O">     -1.00000000</i>
   <i type="int" name="EXXOEP">     0</i>
   <i type="int" name="FOURORBIT">     0</i>
   <i name="AEXX">      0.00000000</i>
   <i name="HFALPHA">      0.00000000</i>
   <i name="MCALPHA">      0.00000000</i>
   <i name="ALDAX">      1.00000000</i>
   <i name="AGGAX">      1.00000000</i>
   <i name="ALDAC">      1.00000000</i>
   <i name="AGGAC">      1.00000000</i>
   <i type="int" name="NKREDX">     1</i>
   <i type="int" name="NKREDY">     1</i>
   <i type="int" name="NKREDZ">     1</i>
   <i type="logical" name="SHIFTRED"> F  </i>
   <i type="logical" name="ODDONLY"> F  </i>
   <i type="logical" name="EVENONLY"> F  </i>
   <i type="int" name="LMAXFOCK">     0</i>
   <i type="int" name="NMAXFOCKAE">     0</i>
   <i type="logical" name="LFOCKAEDFT"> F  </i>
   <i name="HFSCREEN">      0.00000000</i>
   <i name="HFSCREENC">      0.00000000</i>
   <i type="int" name="NBANDSGWLOW">     0</i>
  </separator>
  <separator name="vdW DFT" >
   <i type="logical" name="LUSE_VDW"> F  </i>
   <i name="Zab_VDW">     -0.84910000</i>
   <i name="PARAM1">      0.12340000</i>
   <i name="PARAM2">      1.00000000</i>
   <i name="PARAM3">      0.00000000</i>
  </separator>
  <separator name="model GW" >
   <i type="int" name="MODEL_GW">     0</i>
   <i name="MODEL_EPS0">      9.69100193</i>
   <i name="MODEL_ALPHA">      1.00000000</i>
  </separator>
  <separator name="linear response parameters" >
   <i type="logical" name="LEPSILON"> F  </i>
   <i type="logical" name="LRPA"> F  </i>
   <i type="logical" name="LNABLA"> F  </i>
   <i type="logical" name="LVEL"> F  </i>
   <i name="CSHIFT">      0.10000000</i>
   <i name="OMEGAMAX">     -1.00000000</i>
   <i name="DEG_THRESHOLD">      0.00200000</i>
   <i name="RTIME">     -0.10000000</i>
   <i name="WPLASMAI">      0.00000000</i>
   <v name="DFIELD">      0.00000000      0.00000000      0.00000000</v>
   <v name="WPLASMA">      0.00000000      0.00000000      0.00000000      0.00000000      0.00000000      0.00000000      0.00000000      0.00000000      0.00000000</v>
  </separator>
  <separator name="orbital magnetization" >
   <i type="logical" name="NUCIND"> F  </i>
   <v name="MAGPOS">      0.00000000      0.00000000      0.00000000</v>
   <i type="logical" name="LNICSALL"> T  </i>
   <i type="logical" name="ORBITALMAG"> F  </i>
   <i type="logical" name="LMAGBLOCH"> F  </i>
   <i type="logical" name="LCHIMAG"> F  </i>
   <i type="logical" name="LGAUGE"> T  </i>
   <i type="int" name="MAGATOM">     0</i>
   <v name="MAGDIPOL">      0.00000000      0.00000000      0.00000000</v>
   <v name="AVECCONST">      0.00000000      0.00000000      0.00000000</v>
  </separator>
  <separator name="response functions" >
   <i type="logical" name="LFINITE_TEMPERATURE"> F  </i>
   <i type="logical" name="LADDER"> F  </i>
   <i type="logical" name="LRPAFORCE"> F  </i>
   <i type="logical" name="LFXC"> F  </i>
   <i type="logical" name="LHARTREE"> T  </i>
   <i type="int" name="IBSE">     0</i>
   <v type="int" name="KPOINT">    -1     0     0     0</v>
   <i type="logical" name="LTCTC"> F  </i>
   <i type="logical" name="LTCTE"> F  </i>
   <i type="logical" name="LTETE"> F  </i>
   <i type="logical" name="LTRIPLET"> F  </i>
   <i type="logical" name="LFXCEPS"> F  </i>
   <i type="logical" name="LFXHEG"> F  </i>
   <i type="int" name="NATURALO">     2</i>
   <i type="logical" name="LHOLEGF"> F  </i>
   <i type="logical" name="L2ORDER"> F  </i>
   <i type="logical" name="LDMP1"> F  </i>
   <i type="logical" name="LMP2LT"> F  </i>
   <i type="logical" name="LSMP2LT"> F  </i>
   <i type="logical" name="LGWLF"> F  </i>
   <i name="ENCUTGW">     -2.00000000</i>
   <i name="ENCUTGWSOFT">     -2.00000000</i>
   <i name="ENCUTLF">     -1.00000000</i>
   <i type="logical" name="LESF_SPLINES"> F  </i>
   <i type="int" name="LMAXMP2">    -1</i>
   <i name="SCISSOR">      0.00000000</i>
   <i type="int" name="NOMEGA">     0</i>
   <i type="int" name="NOMEGAR">     0</i>
   <i type="int" name="NBANDSGW">    -1</i>
   <i type="int" name="NBANDSO">    -1</i>
   <i type="int" name="NBANDSV">    -1</i>
   <i type="int" name="NELMGW">     1</i>
   <i type="int" name="NELMHF">     1</i>
   <i type="int" name="DIM">     3</i>
   <i type="int" name="IESPILON">     4</i>
   <i type="int" name="ANTIRES">     0</i>
   <i name="OMEGAMAX">    -30.00000000</i>
   <i name="OMEGAMIN">    -30.00000000</i>
   <i name="OMEGATL">   -200.00000000</i>
   <i type="int" name="OMEGAGRID">     0</i>
   <i name="CSHIFT">     -0.10000000</i>
   <i type="logical" name="LSELFENERGY"> F  </i>
   <i type="logical" name="LSPECTRAL"> F  </i>
   <i type="logical" name="LSPECTRALGW"> F  </i>
   <i type="logical" name="LSINGLES"> F  </i>
   <i type="logical" name="LFERMIGW"> F  </i>
   <i type="logical" name="ODDONLYGW"> F  </i>
   <i type="logical" name="EVENONLYGW"> F  </i>
   <i type="int" name="NKREDLFX">     1</i>
   <i type="int" name="NKREDLFY">     1</i>
   <i type="int" name="NKREDLFZ">     1</i>
   <i type="int" name="MAXMEM">  2800</i>
   <i type="int" name="TELESCOPE">     0</i>
   <i type="int" name="NTAUPAR">    -1</i>
   <i type="int" name="NOMEGAPAR">    -1</i>
   <i name="DAMP_NEWTON">      0.80000001</i>
   <i name="LAMBDA">      1.00000000</i>
  </separator>
  <separator name="External order field" >
   <i name="OFIELD_KAPPA">      0.00000000</i>
   <v name="OFIELD_K">      0.00000000      0.00000000      0.00000000</v>
   <i name="OFIELD_Q6_NEAR">      0.00000000</i>
   <i name="OFIELD_Q6_FAR">      0.00000000</i>
   <i name="OFIELD_A">      0.00000000</i>
  </separator>
  <separator name="optional k-points parameters" >
   <i type="int" name="KPOINTS_OPT_MODE">     1</i>
   <i type="logical" name="LKPOINTS_OPT"> F  </i>
  </separator>
 </parameters>
 <atominfo>
  <atoms>       4 </atoms>
  <types>       1 </types>
  <array name="atoms" >
   <dimension dim="1">ion</dimension>
   <field type="string">element</field>
   <field type="int">atomtype</field>
   <set>
    <rc><c>Ce</c><c>   1</c></rc>
    <rc><c>Ce</c><c>   1</c></rc>
    <rc><c>Ce</c><c>   1</c></rc>
    <rc><c>Ce</c><c>   1</c></rc>
   </set>
  </array>
  <array name="atomtypes" >
   <dimension dim="1">type</dimension>
   <field type="int">atomspertype</field>
   <field type="string">element</field>
   <field>mass</field>
   <field>valence</field>
   <field type="string">pseudopotential</field>
   <set>
    <rc><c>   4</c><c>Ce</c><c>    140.11500000</c><c>     12.00000000</c><c>  PAW_PBE Ce 23Dec2003                  </c></rc>
   </set>
  </array>
 </atominfo>
 <structure name="initialpos" >
  <crystal>
   <varray name="basis" >
    <v>       4.01259943       0.00000000       0.00000000 </v>
    <v>       0.00000000       4.01259943       0.00000000 </v>
    <v>       0.00000000       0.00000000       4.01259943 </v>
   </varray>
   <i name="volume">     64.60667956 </i>
   <varray name="rec_basis" >
    <v>       0.24921501       0.00000000       0.00000000 </v>
    <v>       0.00000000       0.24921501       0.00000000 </v>
    <v>       0.00000000       0.00000000       0.24921501 </v>
   </varray>
  </crystal>
  <varray name="positions" >
   <v>       0.00000000       0.00000000       0.00000000 </v>
   <v>       0.00000000       0.50000000       0.50000000 </v>
   <v>       0.50000000       0.00000000       0.50000000 </v>
   <v>       0.50000000       0.50000000       0.00000000 </v>
  </varray>
 </structure>
 <calculation>
  <scstep>
   <time name="dav">    0.43    0.51</time>
   <time name="total">    0.72    0.82</time>
   <energy>
    <i name="alphaZ">    521.23103907 </i>
    <i name="ewald">  -4738.58891127 </i>
    <i name="hartreedc">   -269.88956287 </i>
    <i name="XCdc">     35.34184251 </i>
    <i name="pawpsdc">   3403.36026388 </i>
    <i name="pawaedc">  -3306.37754537 </i>
    <i name="eentropy">      0.00049331 </i>
    <i name="bandstr">    621.51173928 </i>
    <i name="atom">   4252.29121739 </i>
    <i name="e_fr_energy">    518.88057593 </i>
    <i name="e_wo_entrp">    518.88008262 </i>
    <i name="e_0_energy">    518.88041149 </i>
   </energy>
  </scstep>
  <scstep>
   <time name="dav">    0.52    0.53</time>
   <time name="total">    0.52    0.53</time>
   <energy>
    <i name="e_fr_energy">     43.21739937 </i>
    <i name="e_wo_entrp">     43.21520141 </i>
    <i name="e_0_energy">     43.21666671 </i>
   </energy>
  </scstep>
  <scstep>
   <time name="dav">    0.45    0.46</time>
   <time name="total">    0.45    0.47</time>
   <energy>
    <i name="e_fr_energy">    -17.10081157 </i>
    <i name="e_wo_entrp">    -17.10165794 </i>
    <i name="e_0_energy">    -17.10109369 </i>
   </energy>
  </scstep>
  <scstep>
   <time name="dav">    0.56    0.58</time>
   <time name="total">    0.56    0.58</time>
   <energy>
    <i name="e_fr_energy">    -21.40378906 </i>
    <i name="e_wo_entrp">    -21.40360894 </i>
    <i name="e_0_energy">    -21.40372902 </i>
   </energy>
  </scstep>
  <scstep>
   <time name="dav">    0.53    0.54</time>
   <time name="total">    0.56    0.58</time>
   <energy>
    <i name="e_fr_energy">    -21.78230126 </i>
    <i name="e_wo_entrp">    -21.78021373 </i>
    <i name="e_0_energy">    -21.78160542 </i>
   </energy>
  </scstep>
  <scstep>
   <time name="dav">    0.41    0.41</time>
   <time name="total">    0.71    0.73</time>
   <energy>
    <i name="e_fr_energy">    -18.90472545 </i>
    <i name="e_wo_entrp">    -18.90425483 </i>
    <i name="e_0_energy">    -18.90456858 </i>
   </energy>
  </scstep>
  <scstep>
   <time name="dav">    0.51    0.51</time>
   <time name="total">    0.81    0.83</time>
   <energy>
    <i name="e_fr_energy">    -18.75787028 </i>
    <i name="e_wo_entrp">    -18.75597414 </i>
    <i name="e_0_energy">    -18.75723823 </i>
   </energy>
  </scstep>
  <scstep>
   <time name="dav">    0.54    0.54</time>
   <time name="total">    0.84    0.85</time>
   <energy>
    <i name="e_fr_energy">    -18.72998702 </i>
    <i name="e_wo_entrp">    -18.72883689 </i>
    <i name="e_0_energy">    -18.72960364 </i>
   </energy>
  </scstep>
  <scstep>
   <time name="dav">    0.54    0.55</time>
   <time name="total">    0.84    0.86</time>
   <energy>
    <i name="e_fr_energy">    -18.73664825 </i>
    <i name="e_wo_entrp">    -18.73534314 </i>
    <i name="e_0_energy">    -18.73621321 </i>
   </energy>
  </scstep>
  <scstep>
   <time name="dav">    0.53    0.53</time>
   <time name="total">    0.83    0.84</time>
   <energy>
    <i name="e_fr_energy">    -18.73758660 </i>
    <i name="e_wo_entrp">    -18.73630258 </i>
    <i name="e_0_energy">    -18.73715859 </i>
   </energy>
  </scstep>
  <scstep>
   <time name="dav">    0.57    0.57</time>
   <time name="total">    0.87    0.88</time>
   <energy>
    <i name="e_fr_energy">    -18.73816632 </i>
    <i name="e_wo_entrp">    -18.73689261 </i>
    <i name="e_0_energy">    -18.73774175 </i>
   </energy>
  </scstep>
  <scstep>
   <time name="dav">    0.50    0.50</time>
   <time name="total">    0.80    0.81</time>
   <energy>
    <i name="e_fr_energy">    -18.73824730 </i>
    <i name="e_wo_entrp">    -18.73697126 </i>
    <i name="e_0_energy">    -18.73782195 </i>
   </energy>
  </scstep>
  <scstep>
   <time name="dav">    0.51    0.51</time>
   <time name="total">    0.81    0.82</time>
   <energy>
    <i name="e_fr_energy">    -18.73823571 </i>
    <i name="e_wo_entrp">    -18.73695680 </i>
    <i name="e_0_energy">    -18.73780941 </i>
   </energy>
  </scstep>
  <scstep>
   <time name="dav">    0.40    0.40</time>
   <time name="total">    0.68    0.69</time>
   <energy>
    <i name="alphaZ">    521.23103907 </i>
    <i name="ewald">  -4738.58891127 </i>
    <i name="hartreedc">   -234.31046283 </i>
    <i name="XCdc">     35.05934761 </i>
    <i name="pawpsdc">   5209.21788659 </i>
    <i name="pawaedc">  -5119.18684970 </i>
    <i name="eentropy">     -0.00127699 </i>
    <i name="bandstr">     55.54976710 </i>
    <i name="atom">   4252.29121739 </i>
    <i name="e_fr_energy">    -18.73824303 </i>
    <i name="e_wo_entrp">    -18.73696604 </i>
    <i name="e_0_energy">    -18.73781737 </i>
   </energy>
  </scstep>
  <structure>
   <crystal>
    <varray name="basis" >
     <v>       4.01259943       0.00000000       0.00000000 </v>
     <v>       0.00000000       4.01259943       0.00000000 </v>
     <v>       0.00000000       0.00000000       4.01259943 </v>
    </varray>
    <i name="volume">     64.60667956 </i>
    <varray name="rec_basis" >
     <v>       0.24921501       0.00000000       0.00000000 </v>
     <v>       0.00000000       0.24921501       0.00000000 </v>
     <v>       0.00000000       0.00000000       0.24921501 </v>
    </varray>
   </crystal>
   <varray name="positions" >
    <v>       0.00000000       0.00000000       0.00000000 </v>
    <v>       0.00000000       0.50000000       0.50000000 </v>
    <v>       0.50000000       0.00000000       0.50000000 </v>
    <v>       0.50000000       0.50000000       0.00000000 </v>
   </varray>
  </structure>
  <varray name="forces" >
   <v>      -0.00000000       0.00000000      -0.00000000 </v>
   <v>      -0.00000000       0.00000000       0.00000000 </v>
   <v>       0.00000000      -0.00000000       0.00000000 </v>
   <v>       0.00000000       0.00000000       0.00000000 </v>
  </varray>
  <varray name="stress" >
   <v>     666.15509167      -0.00000000       0.00000000 </v>
   <v>       0.00000000     666.15509167      -0.00000000 </v>
   <v>      -0.00000000      -0.00000000     666.15509167 </v>
  </varray>
  <energy>
   <i name="e_fr_energy">    -18.73824303 </i>
   <i name="e_wo_entrp">    -18.73696604 </i>
   <i name="e_0_energy">    -18.73781737 </i>
  </energy>
  <time name="totalsc">   10.83   11.14</time>
  <eigenvalues>
   <array>
    <dimension dim="1">band</dimension>
    <dimension dim="2">kpoint</dimension>
    <dimension dim="3">spin</dimension>
    <field>eigene</field>
    <field>occ</field>
    <set>
     <set comment="spin 1">
      <set comment="kpoint 1">
       <r>  -20.4036    1.0000 </r>
       <r>  -17.1042    1.0000 </r>
       <r>  -17.1042    1.0000 </r>
       <r>  -17.1042    1.0000 </r>
       <r>   -5.1986    1.0000 </r>
       <r>   -5.1986    1.0000 </r>
       <r>   -5.1986    1.0000 </r>
       <r>   -0.6484    1.0000 </r>
       <r>   -0.6484    1.0000 </r>
       <r>   -0.6484    1.0000 </r>
       <r>   -0.6484    1.0000 </r>
       <r>   -0.6484    1.0000 </r>
       <r>   -0.6484    1.0000 </r>
       <r>    2.6972    1.0000 </r>
       <r>    2.6972    1.0000 </r>
       <r>    2.6972    1.0000 </r>
       <r>   10.8894    1.0000 </r>
       <r>   10.8894    1.0000 </r>
       <r>   10.8894    1.0000 </r>
       <r>   11.4322    1.0000 </r>
       <r>   11.4322    1.0000 </r>
       <r>   11.4322    1.0000 </r>
       <r>   15.1615    1.0000 </r>
       <r>   16.7813   -0.0006 </r>
       <r>   16.8291   -0.0000 </r>
       <r>   16.8291   -0.0000 </r>
       <r>   16.8291   -0.0000 </r>
       <r>   17.1643   -0.0000 </r>
       <r>   17.1643   -0.0000 </r>
       <r>   17.1643   -0.0000 </r>
      </set>
      <set comment="kpoint 2">
       <r>  -20.3102    1.0000 </r>
       <r>  -17.2829    1.0000 </r>
       <r>  -17.0981    1.0000 </r>
       <r>  -17.0981    1.0000 </r>
       <r>   -5.0793    1.0000 </r>
       <r>   -5.0793    1.0000 </r>
       <r>   -4.8993    1.0000 </r>
       <r>   -0.9281    1.0000 </r>
       <r>   -0.9281    1.0000 </r>
       <r>   -0.7585    1.0000 </r>
       <r>   -0.7585    1.0000 </r>
       <r>   -0.5497    1.0000 </r>
       <r>   -0.5497    1.0000 </r>
       <r>    2.3145    1.0000 </r>
       <r>    2.5250    1.0000 </r>
       <r>    2.5250    1.0000 </r>
       <r>   11.1074    1.0000 </r>
       <r>   11.2900    1.0000 </r>
       <r>   11.2900    1.0000 </r>
       <r>   11.5295    1.0000 </r>
       <r>   11.9093    1.0000 </r>
       <r>   11.9093    1.0000 </r>
       <r>   14.9200    1.0000 </r>
       <r>   16.6716   -0.0259 </r>
       <r>   16.8745   -0.0000 </r>
       <r>   16.8745   -0.0000 </r>
       <r>   17.1432   -0.0000 </r>
       <r>   17.1432   -0.0000 </r>
       <r>   17.2054   -0.0000 </r>
       <r>   17.2540   -0.0000 </r>
      </set>
      <set comment="kpoint 3">
       <r>  -20.0338    1.0000 </r>
       <r>  -17.7537    1.0000 </r>
       <r>  -17.0835    1.0000 </r>
       <r>  -17.0835    1.0000 </r>
       <r>   -4.7263    1.0000 </r>
       <r>   -4.7263    1.0000 </r>
       <r>   -4.0727    1.0000 </r>
       <r>   -1.6357    1.0000 </r>
       <r>   -1.6357    1.0000 </r>
       <r>   -1.0098    1.0000 </r>
       <r>   -1.0098    1.0000 </r>
       <r>   -0.2604    1.0000 </r>
       <r>   -0.2604    1.0000 </r>
       <r>    1.3136    1.0000 </r>
       <r>    2.0646    1.0000 </r>
       <r>    2.0646    1.0000 </r>
       <r>   11.7468    1.0000 </r>
       <r>   11.8173    1.0000 </r>
       <r>   12.3664    1.0000 </r>
       <r>   12.3664    1.0000 </r>
       <r>   13.1649    1.0000 </r>
       <r>   13.1649    1.0000 </r>
       <r>   14.3294    1.0000 </r>
       <r>   16.1608    1.0000 </r>
       <r>   17.0063   -0.0000 </r>
       <r>   17.0063   -0.0000 </r>
       <r>   17.0456   -0.0000 </r>
       <r>   17.0456   -0.0000 </r>
       <r>   17.3280   -0.0000 </r>
       <r>   17.4604   -0.0000 </r>
      </set>
      <set comment="kpoint 4">
       <r>  -19.5925    1.0000 </r>
       <r>  -18.3769    1.0000 </r>
       <r>  -17.0688    1.0000 </r>
       <r>  -17.0688    1.0000 </r>
       <r>   -4.1560    1.0000 </r>
       <r>   -4.1560    1.0000 </r>
       <r>   -2.8776    1.0000 </r>
       <r>   -2.5238    1.0000 </r>
       <r>   -2.5238    1.0000 </r>
       <r>   -1.2433    1.0000 </r>
       <r>   -1.2433    1.0000 </r>
       <r>   -0.0267    1.0000 </r>
       <r>    0.1987    1.0000 </r>
       <r>    0.1987    1.0000 </r>
       <r>    1.4426    1.0000 </r>
       <r>    1.4426    1.0000 </r>
       <r>   12.2812    1.0000 </r>
       <r>   12.7530    1.0000 </r>
       <r>   13.6049    1.0000 </r>
       <r>   13.7639    1.0000 </r>
       <r>   13.7639    1.0000 </r>
       <r>   14.7606    1.0000 </r>
       <r>   14.7606    1.0000 </r>
       <r>   15.2321    1.0000 </r>
       <r>   16.7591   -0.0017 </r>
       <r>   16.7591   -0.0017 </r>
       <r>   16.9864   -0.0000 </r>
       <r>   16.9864   -0.0000 </r>
       <r>   17.2057   -0.0000 </r>
       <r>   17.2057   -0.0000 </r>
      </set>
      <set comment="kpoint 5">
       <r>  -19.0205    1.0000 </r>
       <r>  -19.0205    1.0000 </r>
       <r>  -17.0629    1.0000 </r>
       <r>  -17.0629    1.0000 </r>
       <r>   -3.4014    1.0000 </r>
       <r>   -3.4014    1.0000 </r>
       <r>   -3.4014    1.0000 </r>
       <r>   -3.4014    1.0000 </r>
       <r>   -1.4788    1.0000 </r>
       <r>   -1.4788    1.0000 </r>
       <r>   -1.3355    1.0000 </r>
       <r>   -1.3355    1.0000 </r>
       <r>    0.7881    1.0000 </r>
       <r>    0.7881    1.0000 </r>
       <r>    0.7881    1.0000 </r>
       <r>    0.7881    1.0000 </r>
       <r>   12.8936    1.0000 </r>
       <r>   12.8936    1.0000 </r>
       <r>   13.9970    1.0000 </r>
       <r>   13.9970    1.0000 </r>
       <r>   14.6300    1.0000 </r>
       <r>   14.6300    1.0000 </r>
       <r>   16.0700    1.0000 </r>
       <r>   16.0700    1.0000 </r>
       <r>   16.0700    1.0000 </r>
       <r>   16.0700    1.0000 </r>
       <r>   16.5478    0.2572 </r>
       <r>   16.5478    0.2572 </r>
       <r>   17.4365   -0.0000 </r>
       <r>   17.4365   -0.0000 </r>
      </set>
      <set comment="kpoint 6">
       <r>  -20.2176    1.0000 </r>
       <r>  -17.2691    1.0000 </r>
       <r>  -17.2691    1.0000 </r>
       <r>  -17.0982    1.0000 </r>
       <r>   -4.9603    1.0000 </r>
       <r>   -4.8115    1.0000 </r>
       <r>   -4.8115    1.0000 </r>
       <r>   -1.4969    1.0000 </r>
       <r>   -0.8275    1.0000 </r>
       <r>   -0.8275    1.0000 </r>
       <r>   -0.6346    1.0000 </r>
       <r>   -0.6346    1.0000 </r>
       <r>   -0.4767    1.0000 </r>
       <r>    1.7000    1.0000 </r>
       <r>    2.3442    1.0000 </r>
       <r>    2.6622    1.0000 </r>
       <r>   11.2816    1.0000 </r>
       <r>   11.4968    1.0000 </r>
       <r>   11.4968    1.0000 </r>
       <r>   12.0015    1.0000 </r>
       <r>   12.0015    1.0000 </r>
       <r>   12.6857    1.0000 </r>
       <r>   14.8136    1.0000 </r>
       <r>   16.6574   -0.0319 </r>
       <r>   16.7954   -0.0003 </r>
       <r>   16.9209   -0.0000 </r>
       <r>   17.1290   -0.0000 </r>
       <r>   17.1799   -0.0000 </r>
       <r>   17.1802   -0.0000 </r>
       <r>   17.2136   -0.0000 </r>
      </set>
      <set comment="kpoint 7">
       <r>  -19.9456    1.0000 </r>
       <r>  -17.7221    1.0000 </r>
       <r>  -17.2328    1.0000 </r>
       <r>  -17.1015    1.0000 </r>
       <r>   -4.6085    1.0000 </r>
       <r>   -4.5554    1.0000 </r>
       <r>   -4.0761    1.0000 </r>
       <r>   -2.2499    1.0000 </r>
       <r>   -1.5308    1.0000 </r>
       <r>   -0.8128    1.0000 </r>
       <r>   -0.5322    1.0000 </r>
       <r>   -0.4747    1.0000 </r>
       <r>   -0.2709    1.0000 </r>
       <r>    0.6662    1.0000 </r>
       <r>    1.8630    1.0000 </r>
       <r>    2.3930    1.0000 </r>
       <r>   11.9121    1.0000 </r>
       <r>   12.1034    1.0000 </r>
       <r>   12.2728    1.0000 </r>
       <r>   12.5384    1.0000 </r>
       <r>   13.2426    1.0000 </r>
       <r>   14.1460    1.0000 </r>
       <r>   14.4505    1.0000 </r>
       <r>   16.2276    1.0002 </r>
       <r>   16.8719   -0.0000 </r>
       <r>   17.0507   -0.0000 </r>
       <r>   17.0540   -0.0000 </r>
       <r>   17.0548   -0.0000 </r>
       <r>   17.2833   -0.0000 </r>
       <r>   17.3516   -0.0000 </r>
      </set>
      <set comment="kpoint 8">
       <r>  -19.5125    1.0000 </r>
       <r>  -18.3256    1.0000 </r>
       <r>  -17.1863    1.0000 </r>
       <r>  -17.1150    1.0000 </r>
       <r>   -4.1498    1.0000 </r>
       <r>   -4.0401    1.0000 </r>
       <r>   -3.0242    1.0000 </r>
       <r>   -2.9778    1.0000 </r>
       <r>   -2.4144    1.0000 </r>
       <r>   -0.9316    1.0000 </r>
       <r>   -0.6846    1.0000 </r>
       <r>   -0.5434    1.0000 </r>
       <r>   -0.0626    1.0000 </r>
       <r>    0.3029    1.0000 </r>
       <r>    1.2174    1.0000 </r>
       <r>    1.7785    1.0000 </r>
       <r>   12.7055    1.0000 </r>
       <r>   13.0570    1.0000 </r>
       <r>   13.1304    1.0000 </r>
       <r>   13.8374    1.0000 </r>
       <r>   13.8836    1.0000 </r>
       <r>   14.8165    1.0000 </r>
       <r>   15.3785    1.0000 </r>
       <r>   15.6341    1.0000 </r>
       <r>   16.6336   -0.0347 </r>
       <r>   16.7835   -0.0006 </r>
       <r>   17.0400   -0.0000 </r>
       <r>   17.0748   -0.0000 </r>
       <r>   17.0763   -0.0000 </r>
       <r>   17.2551   -0.0000 </r>
      </set>
      <set comment="kpoint 9">
       <r>  -18.9529    1.0000 </r>
       <r>  -18.9529    1.0000 </r>
       <r>  -17.1436    1.0000 </r>
       <r>  -17.1436    1.0000 </r>
       <r>   -3.6180    1.0000 </r>
       <r>   -3.6180    1.0000 </r>
       <r>   -3.2882    1.0000 </r>
       <r>   -3.2882    1.0000 </r>
       <r>   -1.8071    1.0000 </r>
       <r>   -1.8071    1.0000 </r>
       <r>   -0.8852    1.0000 </r>
       <r>   -0.8852    1.0000 </r>
       <r>    0.5423    1.0000 </r>
       <r>    0.5423    1.0000 </r>
       <r>    1.0240    1.0000 </r>
       <r>    1.0240    1.0000 </r>
       <r>   13.2641    1.0000 </r>
       <r>   13.2641    1.0000 </r>
       <r>   14.2297    1.0000 </r>
       <r>   14.2297    1.0000 </r>
       <r>   14.2623    1.0000 </r>
       <r>   14.2623    1.0000 </r>
       <r>   16.1062    1.0000 </r>
       <r>   16.1062    1.0000 </r>
       <r>   16.4092    1.0318 </r>
       <r>   16.4092    1.0318 </r>
       <r>   16.6442   -0.0352 </r>
       <r>   16.6442   -0.0352 </r>
       <r>   17.2399   -0.0000 </r>
       <r>   17.2402   -0.0000 </r>
      </set>
      <set comment="kpoint 10">
       <r>  -19.6880    1.0000 </r>
       <r>  -17.6343    1.0000 </r>
       <r>  -17.6343    1.0000 </r>
       <r>  -17.1565    1.0000 </r>
       <r>   -4.2600    1.0000 </r>
       <r>   -4.0781    1.0000 </r>
       <r>   -4.0781    1.0000 </r>
       <r>   -2.9954    1.0000 </r>
       <r>   -1.2222    1.0000 </r>
       <r>   -1.2222    1.0000 </r>
       <r>   -0.3800    1.0000 </r>
       <r>   -0.2572    1.0000 </r>
       <r>   -0.2572    1.0000 </r>
       <r>    0.0084    1.0000 </r>
       <r>    1.3325    1.0000 </r>
       <r>    2.5043    1.0000 </r>
       <r>   11.9204    1.0000 </r>
       <r>   13.0400    1.0000 </r>
       <r>   13.0400    1.0000 </r>
       <r>   13.4674    1.0000 </r>
       <r>   13.4674    1.0000 </r>
       <r>   14.6275    1.0000 </r>
       <r>   15.5602    1.0000 </r>
       <r>   16.1257    1.0000 </r>
       <r>   16.7513   -0.0023 </r>
       <r>   17.0255   -0.0000 </r>
       <r>   17.0255   -0.0000 </r>
       <r>   17.0396   -0.0000 </r>
       <r>   17.0422   -0.0000 </r>
       <r>   17.1328   -0.0000 </r>
      </set>
      <set comment="kpoint 11">
       <r>  -19.2796    1.0000 </r>
       <r>  -18.1797    1.0000 </r>
       <r>  -17.5089    1.0000 </r>
       <r>  -17.2490    1.0000 </r>
       <r>   -4.0412    1.0000 </r>
       <r>   -3.6974    1.0000 </r>
       <r>   -3.5558    1.0000 </r>
       <r>   -3.3657    1.0000 </r>
       <r>   -2.0918    1.0000 </r>
       <r>   -1.4635    1.0000 </r>
       <r>   -0.7292    1.0000 </r>
       <r>   -0.1527    1.0000 </r>
       <r>    0.1406    1.0000 </r>
       <r>    0.5469    1.0000 </r>
       <r>    0.6322    1.0000 </r>
       <r>    2.1434    1.0000 </r>
       <r>   12.6723    1.0000 </r>
       <r>   13.8111    1.0000 </r>
       <r>   13.8164    1.0000 </r>
       <r>   14.0368    1.0000 </r>
       <r>   14.5468    1.0000 </r>
       <r>   14.9727    1.0000 </r>
       <r>   15.5740    1.0000 </r>
       <r>   16.4838    0.7694 </r>
       <r>   16.5047    0.6086 </r>
       <r>   16.7004   -0.0134 </r>
       <r>   16.8544   -0.0000 </r>
       <r>   16.8907   -0.0000 </r>
       <r>   17.1356   -0.0000 </r>
       <r>   17.1670   -0.0000 </r>
      </set>
      <set comment="kpoint 12">
       <r>  -18.7571    1.0000 </r>
       <r>  -18.7571    1.0000 </r>
       <r>  -17.3720    1.0000 </r>
       <r>  -17.3720    1.0000 </r>
       <r>   -3.8925    1.0000 </r>
       <r>   -3.8925    1.0000 </r>
       <r>   -2.9541    1.0000 </r>
       <r>   -2.9541    1.0000 </r>
       <r>   -2.4784    1.0000 </r>
       <r>   -2.4784    1.0000 </r>
       <r>   -0.0895    1.0000 </r>
       <r>   -0.0895    1.0000 </r>
       <r>    0.0235    1.0000 </r>
       <r>    0.0235    1.0000 </r>
       <r>    1.4204    1.0000 </r>
       <r>    1.4204    1.0000 </r>
       <r>   13.7829    1.0000 </r>
       <r>   13.7829    1.0000 </r>
       <r>   14.2122    1.0000 </r>
       <r>   14.2122    1.0000 </r>
       <r>   14.7358    1.0000 </r>
       <r>   14.7358    1.0000 </r>
       <r>   16.2070    1.0001 </r>
       <r>   16.2070    1.0001 </r>
       <r>   16.6146   -0.0216 </r>
       <r>   16.6146   -0.0216 </r>
       <r>   16.7444   -0.0031 </r>
       <r>   16.7444   -0.0031 </r>
       <r>   17.0726   -0.0000 </r>
       <r>   17.0733   -0.0000 </r>
      </set>
      <set comment="kpoint 13">
       <r>  -18.9147    1.0000 </r>
       <r>  -17.9616    1.0000 </r>
       <r>  -17.9616    1.0000 </r>
       <r>  -17.4558    1.0000 </r>
       <r>   -3.8853    1.0000 </r>
       <r>   -3.7174    1.0000 </r>
       <r>   -3.7174    1.0000 </r>
       <r>   -3.1449    1.0000 </r>
       <r>   -2.3773    1.0000 </r>
       <r>   -1.5745    1.0000 </r>
       <r>   -1.5745    1.0000 </r>
       <r>   -0.1272    1.0000 </r>
       <r>    0.7135    1.0000 </r>
       <r>    0.7973    1.0000 </r>
       <r>    0.7973    1.0000 </r>
       <r>    2.1183    1.0000 </r>
       <r>   12.8740    1.0000 </r>
       <r>   14.3222    1.0000 </r>
       <r>   14.3222    1.0000 </r>
       <r>   15.1647    1.0000 </r>
       <r>   15.1864    1.0000 </r>
       <r>   15.1864    1.0000 </r>
       <r>   15.2137    1.0000 </r>
       <r>   16.4697    0.8587 </r>
       <r>   16.4697    0.8587 </r>
       <r>   16.7762   -0.0008 </r>
       <r>   16.8644   -0.0000 </r>
       <r>   16.8885   -0.0000 </r>
       <r>   16.9352   -0.0000 </r>
       <r>   16.9527   -0.0000 </r>
      </set>
      <set comment="kpoint 14">
       <r>  -18.4562    1.0000 </r>
       <r>  -18.4562    1.0000 </r>
       <r>  -17.7064    1.0000 </r>
       <r>  -17.7064    1.0000 </r>
       <r>   -3.9244    1.0000 </r>
       <r>   -3.9244    1.0000 </r>
       <r>   -3.1520    1.0000 </r>
       <r>   -3.1520    1.0000 </r>
       <r>   -2.4166    1.0000 </r>
       <r>   -2.4166    1.0000 </r>
       <r>   -0.8984    1.0000 </r>
       <r>   -0.8984    1.0000 </r>
       <r>    0.9058    1.0000 </r>
       <r>    0.9058    1.0000 </r>
       <r>    1.6322    1.0000 </r>
       <r>    1.6322    1.0000 </r>
       <r>   13.6619    1.0000 </r>
       <r>   13.6619    1.0000 </r>
       <r>   14.7029    1.0000 </r>
       <r>   14.7029    1.0000 </r>
       <r>   15.3411    1.0000 </r>
       <r>   15.3411    1.0000 </r>
       <r>   16.3309    1.0120 </r>
       <r>   16.3309    1.0120 </r>
       <r>   16.6249   -0.0311 </r>
       <r>   16.6249   -0.0311 </r>
       <r>   16.7497   -0.0025 </r>
       <r>   16.7497   -0.0025 </r>
       <r>   17.0407   -0.0000 </r>
       <r>   17.0588   -0.0000 </r>
      </set>
      <set comment="kpoint 15">
       <r>  -18.0884    1.0000 </r>
       <r>  -18.0884    1.0000 </r>
       <r>  -18.0884    1.0000 </r>
       <r>  -18.0884    1.0000 </r>
       <r>   -3.6642    1.0000 </r>
       <r>   -3.6642    1.0000 </r>
       <r>   -3.6642    1.0000 </r>
       <r>   -3.6642    1.0000 </r>
       <r>   -1.7104    1.0000 </r>
       <r>   -1.7104    1.0000 </r>
       <r>   -1.7104    1.0000 </r>
       <r>   -1.7104    1.0000 </r>
       <r>    1.4802    1.0000 </r>
       <r>    1.4802    1.0000 </r>
       <r>    1.4802    1.0000 </r>
       <r>    1.4802    1.0000 </r>
       <r>   14.0435    1.0000 </r>
       <r>   14.0435    1.0000 </r>
       <r>   14.0435    1.0000 </r>
       <r>   14.0435    1.0000 </r>
       <r>   16.1826    1.0000 </r>
       <r>   16.1826    1.0000 </r>
       <r>   16.1826    1.0000 </r>
       <r>   16.1826    1.0000 </r>
       <r>   16.8471   -0.0000 </r>
       <r>   16.8471   -0.0000 </r>
       <r>   16.8555   -0.0000 </r>
       <r>   16.8653   -0.0000 </r>
       <r>   16.8847   -0.0000 </r>
       <r>   16.8847   -0.0000 </r>
      </set>
      <set comment="kpoint 16">
       <r>  -20.1264    1.0000 </r>
       <r>  -17.2613    1.0000 </r>
       <r>  -17.2613    1.0000 </r>
       <r>  -17.2613    1.0000 </r>
       <r>   -4.7341    1.0000 </r>
       <r>   -4.7341    1.0000 </r>
       <r>   -4.7341    1.0000 </r>
       <r>   -1.3328    1.0000 </r>
       <r>   -1.3328    1.0000 </r>
       <r>   -1.3328    1.0000 </r>
       <r>   -0.3823    1.0000 </r>
       <r>   -0.3823    1.0000 </r>
       <r>   -0.3823    1.0000 </r>
       <r>    1.1035    1.0000 </r>
       <r>    2.5050    1.0000 </r>
       <r>    2.5050    1.0000 </r>
       <r>   11.4622    1.0000 </r>
       <r>   11.4622    1.0000 </r>
       <r>   11.4622    1.0000 </r>
       <r>   12.7893    1.0000 </r>
       <r>   12.7893    1.0000 </r>
       <r>   12.7893    1.0000 </r>
       <r>   14.6793    1.0000 </r>
       <r>   16.6463   -0.0349 </r>
       <r>   16.8384   -0.0000 </r>
       <r>   16.8384   -0.0000 </r>
       <r>   17.1628   -0.0000 </r>
       <r>   17.1629   -0.0000 </r>
       <r>   17.1630   -0.0000 </r>
       <r>   17.5076   -0.0000 </r>
      </set>
      <set comment="kpoint 17">
       <r>  -19.8595    1.0000 </r>
       <r>  -17.6956    1.0000 </r>
       <r>  -17.2423    1.0000 </r>
       <r>  -17.2423    1.0000 </r>
       <r>   -4.5183    1.0000 </r>
       <r>   -4.5183    1.0000 </r>
       <r>   -4.1158    1.0000 </r>
       <r>   -1.9925    1.0000 </r>
       <r>   -1.9925    1.0000 </r>
       <r>   -0.8526    1.0000 </r>
       <r>   -0.3621    1.0000 </r>
       <r>   -0.3621    1.0000 </r>
       <r>   -0.1060    1.0000 </r>
       <r>    0.0606    1.0000 </r>
       <r>    2.0814    1.0000 </r>
       <r>    2.3218    1.0000 </r>
       <r>   11.9739    1.0000 </r>
       <r>   12.0742    1.0000 </r>
       <r>   12.0742    1.0000 </r>
       <r>   13.1091    1.0000 </r>
       <r>   14.2190    1.0000 </r>
       <r>   14.2190    1.0000 </r>
       <r>   14.4123    1.0000 </r>
       <r>   16.2785    1.0019 </r>
       <r>   16.8767   -0.0000 </r>
       <r>   16.9641   -0.0000 </r>
       <r>   17.0654   -0.0000 </r>
       <r>   17.0654   -0.0000 </r>
       <r>   17.1986   -0.0000 </r>
       <r>   17.2561   -0.0000 </r>
      </set>
      <set comment="kpoint 18">
       <r>  -19.4349    1.0000 </r>
       <r>  -18.2784    1.0000 </r>
       <r>  -17.2231    1.0000 </r>
       <r>  -17.2231    1.0000 </r>
       <r>   -4.2297    1.0000 </r>
       <r>   -4.2297    1.0000 </r>
       <r>   -3.2337    1.0000 </r>
       <r>   -2.5567    1.0000 </r>
       <r>   -2.5567    1.0000 </r>
       <r>   -1.0780    1.0000 </r>
       <r>   -0.5042    1.0000 </r>
       <r>   -0.5042    1.0000 </r>
       <r>   -0.1052    1.0000 </r>
       <r>    0.3309    1.0000 </r>
       <r>    1.5032    1.0000 </r>
       <r>    1.6851    1.0000 </r>
       <r>   12.6964    1.0000 </r>
       <r>   13.2468    1.0000 </r>
       <r>   13.2468    1.0000 </r>
       <r>   13.6881    1.0000 </r>
       <r>   14.0010    1.0000 </r>
       <r>   15.5337    1.0000 </r>
       <r>   15.6295    1.0000 </r>
       <r>   15.6295    1.0000 </r>
       <r>   16.6633   -0.0295 </r>
       <r>   16.6633   -0.0295 </r>
       <r>   16.9558   -0.0000 </r>
       <r>   17.1154   -0.0000 </r>
       <r>   17.1170   -0.0000 </r>
       <r>   17.1505   -0.0000 </r>
      </set>
      <set comment="kpoint 19">
       <r>  -18.8883    1.0000 </r>
       <r>  -18.8883    1.0000 </r>
       <r>  -17.2153    1.0000 </r>
       <r>  -17.2153    1.0000 </r>
       <r>   -4.0615    1.0000 </r>
       <r>   -4.0615    1.0000 </r>
       <r>   -2.8135    1.0000 </r>
       <r>   -2.8135    1.0000 </r>
       <r>   -2.1978    1.0000 </r>
       <r>   -2.1978    1.0000 </r>
       <r>   -0.5858    1.0000 </r>
       <r>   -0.5858    1.0000 </r>
       <r>    0.8000    1.0000 </r>
       <r>    0.8000    1.0000 </r>
       <r>    0.8885    1.0000 </r>
       <r>    0.8885    1.0000 </r>
       <r>   13.4133    1.0000 </r>
       <r>   13.4133    1.0000 </r>
       <r>   14.1028    1.0000 </r>
       <r>   14.1028    1.0000 </r>
       <r>   14.5639    1.0000 </r>
       <r>   14.5639    1.0000 </r>
       <r>   15.9515    1.0000 </r>
       <r>   15.9515    1.0000 </r>
       <r>   16.6521   -0.0336 </r>
       <r>   16.6521   -0.0336 </r>
       <r>   16.7562   -0.0019 </r>
       <r>   16.7562   -0.0019 </r>
       <r>   17.1316   -0.0000 </r>
       <r>   17.1318   -0.0000 </r>
      </set>
      <set comment="kpoint 20">
       <r>  -19.6075    1.0000 </r>
       <r>  -17.6229    1.0000 </r>
       <r>  -17.6229    1.0000 </r>
       <r>  -17.2735    1.0000 </r>
       <r>   -4.4507    1.0000 </r>
       <r>   -4.2253    1.0000 </r>
       <r>   -4.2253    1.0000 </r>
       <r>   -2.4599    1.0000 </r>
       <r>   -1.3200    1.0000 </r>
       <r>   -1.3200    1.0000 </r>
       <r>   -0.9822    1.0000 </r>
       <r>   -0.0196    1.0000 </r>
       <r>   -0.0196    1.0000 </r>
       <r>    0.0886    1.0000 </r>
       <r>    1.7250    1.0000 </r>
       <r>    2.3899    1.0000 </r>
       <r>   12.0825    1.0000 </r>
       <r>   12.5420    1.0000 </r>
       <r>   12.5420    1.0000 </r>
       <r>   14.3872    1.0000 </r>
       <r>   14.4287    1.0000 </r>
       <r>   14.4287    1.0000 </r>
       <r>   15.5939    1.0000 </r>
       <r>   16.1709    1.0000 </r>
       <r>   16.7818   -0.0006 </r>
       <r>   17.0328   -0.0000 </r>
       <r>   17.0470   -0.0000 </r>
       <r>   17.0496   -0.0000 </r>
       <r>   17.0663   -0.0000 </r>
       <r>   17.1963   -0.0000 </r>
      </set>
      <set comment="kpoint 21">
       <r>  -19.2091    1.0000 </r>
       <r>  -18.1448    1.0000 </r>
       <r>  -17.5224    1.0000 </r>
       <r>  -17.3321    1.0000 </r>
       <r>   -4.4337    1.0000 </r>
       <r>   -4.3559    1.0000 </r>
       <r>   -3.7040    1.0000 </r>
       <r>   -2.5373    1.0000 </r>
       <r>   -2.0322    1.0000 </r>
       <r>   -1.8015    1.0000 </r>
       <r>   -0.4642    1.0000 </r>
       <r>    0.0357    1.0000 </r>
       <r>    0.2280    1.0000 </r>
       <r>    0.5655    1.0000 </r>
       <r>    1.0975    1.0000 </r>
       <r>    2.0459    1.0000 </r>
       <r>   12.8164    1.0000 </r>
       <r>   13.2413    1.0000 </r>
       <r>   13.5826    1.0000 </r>
       <r>   14.3515    1.0000 </r>
       <r>   14.7456    1.0000 </r>
       <r>   15.5614    1.0000 </r>
       <r>   15.6671    1.0000 </r>
       <r>   16.5162    0.5125 </r>
       <r>   16.5204    0.4767 </r>
       <r>   16.7527   -0.0022 </r>
       <r>   16.7571   -0.0018 </r>
       <r>   16.8708   -0.0000 </r>
       <r>   17.0357   -0.0000 </r>
       <r>   17.1963   -0.0000 </r>
      </set>
      <set comment="kpoint 22">
       <r>  -18.7021    1.0000 </r>
       <r>  -18.7021    1.0000 </r>
       <r>  -17.4186    1.0000 </r>
       <r>  -17.4186    1.0000 </r>
       <r>   -4.4313    1.0000 </r>
       <r>   -4.4313    1.0000 </r>
       <r>   -2.9612    1.0000 </r>
       <r>   -2.9612    1.0000 </r>
       <r>   -2.2537    1.0000 </r>
       <r>   -2.2537    1.0000 </r>
       <r>    0.1487    1.0000 </r>
       <r>    0.1487    1.0000 </r>
       <r>    0.3601    1.0000 </r>
       <r>    0.3601    1.0000 </r>
       <r>    1.3381    1.0000 </r>
       <r>    1.3381    1.0000 </r>
       <r>   13.8233    1.0000 </r>
       <r>   13.8233    1.0000 </r>
       <r>   13.9698    1.0000 </r>
       <r>   13.9698    1.0000 </r>
       <r>   15.1417    1.0000 </r>
       <r>   15.1417    1.0000 </r>
       <r>   15.9444    1.0000 </r>
       <r>   15.9444    1.0000 </r>
       <r>   16.7145   -0.0089 </r>
       <r>   16.7145   -0.0089 </r>
       <r>   16.7267   -0.0059 </r>
       <r>   16.7267   -0.0059 </r>
       <r>   17.0972   -0.0000 </r>
       <r>   17.1164   -0.0000 </r>
      </set>
      <set comment="kpoint 23">
       <r>  -18.8572    1.0000 </r>
       <r>  -17.9477    1.0000 </r>
       <r>  -17.9477    1.0000 </r>
       <r>  -17.5051    1.0000 </r>
       <r>   -4.5755    1.0000 </r>
       <r>   -4.1817    1.0000 </r>
       <r>   -4.1817    1.0000 </r>
       <r>   -2.9553    1.0000 </r>
       <r>   -2.2001    1.0000 </r>
       <r>   -1.0400    1.0000 </r>
       <r>   -1.0400    1.0000 </r>
       <r>    0.4383    1.0000 </r>
       <r>    0.7662    1.0000 </r>
       <r>    0.8328    1.0000 </r>
       <r>    0.8328    1.0000 </r>
       <r>    2.0651    1.0000 </r>
       <r>   13.0212    1.0000 </r>
       <r>   14.0935    1.0000 </r>
       <r>   14.0935    1.0000 </r>
       <r>   14.7909    1.0000 </r>
       <r>   15.3017    1.0000 </r>
       <r>   15.3698    1.0000 </r>
       <r>   15.3698    1.0000 </r>
       <r>   16.5499    0.2424 </r>
       <r>   16.5499    0.2424 </r>
       <r>   16.7071   -0.0111 </r>
       <r>   16.8541   -0.0000 </r>
       <r>   16.9560   -0.0000 </r>
       <r>   16.9830   -0.0000 </r>
       <r>   16.9920   -0.0000 </r>
      </set>
      <set comment="kpoint 24">
       <r>  -18.4175    1.0000 </r>
       <r>  -18.4175    1.0000 </r>
       <r>  -17.7214    1.0000 </r>
       <r>  -17.7214    1.0000 </r>
       <r>   -4.4984    1.0000 </r>
       <r>   -4.4984    1.0000 </r>
       <r>   -3.6988    1.0000 </r>
       <r>   -3.6988    1.0000 </r>
       <r>   -1.6620    1.0000 </r>
       <r>   -1.6620    1.0000 </r>
       <r>   -0.2948    1.0000 </r>
       <r>   -0.2948    1.0000 </r>
       <r>    0.9487    1.0000 </r>
       <r>    0.9487    1.0000 </r>
       <r>    1.6082    1.0000 </r>
       <r>    1.6082    1.0000 </r>
       <r>   13.7791    1.0000 </r>
       <r>   13.7791    1.0000 </r>
       <r>   14.6927    1.0000 </r>
       <r>   14.6927    1.0000 </r>
       <r>   15.1338    1.0000 </r>
       <r>   15.1338    1.0000 </r>
       <r>   16.0193    1.0000 </r>
       <r>   16.0193    1.0000 </r>
       <r>   16.7318   -0.0049 </r>
       <r>   16.7318   -0.0049 </r>
       <r>   16.8245   -0.0001 </r>
       <r>   16.8245   -0.0001 </r>
       <r>   17.0475   -0.0000 </r>
       <r>   17.0517   -0.0000 </r>
      </set>
      <set comment="kpoint 25">
       <r>  -18.0733    1.0000 </r>
       <r>  -18.0733    1.0000 </r>
       <r>  -18.0733    1.0000 </r>
       <r>  -18.0733    1.0000 </r>
       <r>   -4.2407    1.0000 </r>
       <r>   -4.2407    1.0000 </r>
       <r>   -4.2407    1.0000 </r>
       <r>   -4.2407    1.0000 </r>
       <r>   -0.9985    1.0000 </r>
       <r>   -0.9985    1.0000 </r>
       <r>   -0.9985    1.0000 </r>
       <r>   -0.9985    1.0000 </r>
       <r>    1.4877    1.0000 </r>
       <r>    1.4877    1.0000 </r>
       <r>    1.4877    1.0000 </r>
       <r>    1.4877    1.0000 </r>
       <r>   14.1675    1.0000 </r>
       <r>   14.1675    1.0000 </r>
       <r>   14.1675    1.0000 </r>
       <r>   14.1675    1.0000 </r>
       <r>   15.7920    1.0000 </r>
       <r>   15.7920    1.0000 </r>
       <r>   15.7920    1.0000 </r>
       <r>   15.7920    1.0000 </r>
       <r>   16.9015   -0.0000 </r>
       <r>   16.9016   -0.0000 </r>
       <r>   16.9019   -0.0000 </r>
       <r>   16.9074   -0.0000 </r>
       <r>   16.9479   -0.0000 </r>
       <r>   16.9484   -0.0000 </r>
      </set>
      <set comment="kpoint 26">
       <r>  -19.3727    1.0000 </r>
       <r>  -17.5952    1.0000 </r>
       <r>  -17.5952    1.0000 </r>
       <r>  -17.5952    1.0000 </r>
       <r>   -4.5614    1.0000 </r>
       <r>   -4.5614    1.0000 </r>
       <r>   -4.5614    1.0000 </r>
       <r>   -2.0216    1.0000 </r>
       <r>   -1.3702    1.0000 </r>
       <r>   -1.3702    1.0000 </r>
       <r>   -1.3702    1.0000 </r>
       <r>    0.3221    1.0000 </r>
       <r>    0.3221    1.0000 </r>
       <r>    0.3221    1.0000 </r>
       <r>    2.0750    1.0000 </r>
       <r>    2.0750    1.0000 </r>
       <r>   12.5520    1.0000 </r>
       <r>   12.5520    1.0000 </r>
       <r>   12.5520    1.0000 </r>
       <r>   14.0849    1.0000 </r>
       <r>   15.6657    1.0000 </r>
       <r>   15.6657    1.0000 </r>
       <r>   15.6657    1.0000 </r>
       <r>   16.1599    1.0000 </r>
       <r>   16.8838   -0.0000 </r>
       <r>   16.8841   -0.0000 </r>
       <r>   17.0450   -0.0000 </r>
       <r>   17.0504   -0.0000 </r>
       <r>   17.0905   -0.0000 </r>
       <r>   17.1177   -0.0000 </r>
      </set>
      <set comment="kpoint 27">
       <r>  -19.0058    1.0000 </r>
       <r>  -18.0484    1.0000 </r>
       <r>  -17.5673    1.0000 </r>
       <r>  -17.5673    1.0000 </r>
       <r>   -4.8706    1.0000 </r>
       <r>   -4.8706    1.0000 </r>
       <r>   -4.3511    1.0000 </r>
       <r>   -3.0160    1.0000 </r>
       <r>   -1.3121    1.0000 </r>
       <r>   -1.3121    1.0000 </r>
       <r>   -0.1249    1.0000 </r>
       <r>    0.4918    1.0000 </r>
       <r>    0.4918    1.0000 </r>
       <r>    0.6865    1.0000 </r>
       <r>    1.6306    1.0000 </r>
       <r>    1.8437    1.0000 </r>
       <r>   13.2350    1.0000 </r>
       <r>   13.2350    1.0000 </r>
       <r>   13.2580    1.0000 </r>
       <r>   14.0894    1.0000 </r>
       <r>   15.6387    1.0000 </r>
       <r>   15.7322    1.0000 </r>
       <r>   16.2315    1.0002 </r>
       <r>   16.2315    1.0002 </r>
       <r>   16.6312   -0.0341 </r>
       <r>   16.6312   -0.0341 </r>
       <r>   16.6998   -0.0136 </r>
       <r>   16.8782   -0.0000 </r>
       <r>   17.0345   -0.0000 </r>
       <r>   17.1542   -0.0000 </r>
      </set>
      <set comment="kpoint 28">
       <r>  -18.5448    1.0000 </r>
       <r>  -18.5448    1.0000 </r>
       <r>  -17.5556    1.0000 </r>
       <r>  -17.5556    1.0000 </r>
       <r>   -4.9915    1.0000 </r>
       <r>   -4.9915    1.0000 </r>
       <r>   -3.8190    1.0000 </r>
       <r>   -3.8190    1.0000 </r>
       <r>   -1.2687    1.0000 </r>
       <r>   -1.2687    1.0000 </r>
       <r>    0.5255    1.0000 </r>
       <r>    0.5255    1.0000 </r>
       <r>    1.0331    1.0000 </r>
       <r>    1.0331    1.0000 </r>
       <r>    1.1422    1.0000 </r>
       <r>    1.1422    1.0000 </r>
       <r>   13.9286    1.0000 </r>
       <r>   13.9286    1.0000 </r>
       <r>   13.9531    1.0000 </r>
       <r>   13.9531    1.0000 </r>
       <r>   15.4426    1.0000 </r>
       <r>   15.4426    1.0000 </r>
       <r>   15.5806    1.0000 </r>
       <r>   15.5806    1.0000 </r>
       <r>   16.6969   -0.0147 </r>
       <r>   16.6969   -0.0147 </r>
       <r>   16.8288   -0.0000 </r>
       <r>   16.8288   -0.0000 </r>
       <r>   17.1481   -0.0000 </r>
       <r>   17.1501   -0.0000 </r>
      </set>
      <set comment="kpoint 29">
       <r>  -18.6927    1.0000 </r>
       <r>  -17.9135    1.0000 </r>
       <r>  -17.9135    1.0000 </r>
       <r>  -17.6505    1.0000 </r>
       <r>   -5.1991    1.0000 </r>
       <r>   -4.9125    1.0000 </r>
       <r>   -4.9125    1.0000 </r>
       <r>   -3.9164    1.0000 </r>
       <r>   -0.8556    1.0000 </r>
       <r>   -0.1604    1.0000 </r>
       <r>   -0.1604    1.0000 </r>
       <r>    0.9167    1.0000 </r>
       <r>    0.9430    1.0000 </r>
       <r>    0.9430    1.0000 </r>
       <r>    1.2812    1.0000 </r>
       <r>    1.9130    1.0000 </r>
       <r>   13.4425    1.0000 </r>
       <r>   13.8657    1.0000 </r>
       <r>   13.8657    1.0000 </r>
       <r>   14.1226    1.0000 </r>
       <r>   15.5137    1.0000 </r>
       <r>   15.5169    1.0000 </r>
       <r>   15.5169    1.0000 </r>
       <r>   16.1399    1.0000 </r>
       <r>   16.7446   -0.0030 </r>
       <r>   16.7446   -0.0030 </r>
       <r>   16.9011   -0.0000 </r>
       <r>   16.9223   -0.0000 </r>
       <r>   17.0029   -0.0000 </r>
       <r>   17.0684   -0.0000 </r>
      </set>
      <set comment="kpoint 30">
       <r>  -18.3101    1.0000 </r>
       <r>  -18.3101    1.0000 </r>
       <r>  -17.7712    1.0000 </r>
       <r>  -17.7712    1.0000 </r>
       <r>   -5.2172    1.0000 </r>
       <r>   -5.2172    1.0000 </r>
       <r>   -4.5768    1.0000 </r>
       <r>   -4.5768    1.0000 </r>
       <r>   -0.4517    1.0000 </r>
       <r>   -0.4517    1.0000 </r>
       <r>    0.6927    1.0000 </r>
       <r>    0.6927    1.0000 </r>
       <r>    1.0739    1.0000 </r>
       <r>    1.0739    1.0000 </r>
       <r>    1.5326    1.0000 </r>
       <r>    1.5326    1.0000 </r>
       <r>   14.1138    1.0000 </r>
       <r>   14.1138    1.0000 </r>
       <r>   14.3633    1.0000 </r>
       <r>   14.3633    1.0000 </r>
       <r>   15.0753    1.0000 </r>
       <r>   15.0753    1.0000 </r>
       <r>   15.3287    1.0000 </r>
       <r>   15.3287    1.0000 </r>
       <r>   16.9056   -0.0000 </r>
       <r>   16.9056   -0.0000 </r>
       <r>   16.9063   -0.0000 </r>
       <r>   16.9063   -0.0000 </r>
       <r>   17.0807   -0.0000 </r>
       <r>   17.0814   -0.0000 </r>
      </set>
      <set comment="kpoint 31">
       <r>  -18.0369    1.0000 </r>
       <r>  -18.0369    1.0000 </r>
       <r>  -18.0369    1.0000 </r>
       <r>  -18.0369    1.0000 </r>
       <r>   -5.0693    1.0000 </r>
       <r>   -5.0693    1.0000 </r>
       <r>   -5.0693    1.0000 </r>
       <r>   -5.0693    1.0000 </r>
       <r>    0.1815    1.0000 </r>
       <r>    0.1815    1.0000 </r>
       <r>    0.1815    1.0000 </r>
       <r>    0.1815    1.0000 </r>
       <r>    1.5059    1.0000 </r>
       <r>    1.5059    1.0000 </r>
       <r>    1.5059    1.0000 </r>
       <r>    1.5059    1.0000 </r>
       <r>   14.4921    1.0000 </r>
       <r>   14.4921    1.0000 </r>
       <r>   14.4921    1.0000 </r>
       <r>   14.4921    1.0000 </r>
       <r>   14.9625    1.0000 </r>
       <r>   14.9625    1.0000 </r>
       <r>   14.9625    1.0000 </r>
       <r>   14.9625    1.0000 </r>
       <r>   16.9575   -0.0000 </r>
       <r>   16.9576   -0.0000 </r>
       <r>   16.9577   -0.0000 </r>
       <r>   16.9581   -0.0000 </r>
       <r>   17.0486   -0.0000 </r>
       <r>   17.0496   -0.0000 </r>
      </set>
      <set comment="kpoint 32">
       <r>  -18.4466    1.0000 </r>
       <r>  -17.8787    1.0000 </r>
       <r>  -17.8787    1.0000 </r>
       <r>  -17.8787    1.0000 </r>
       <r>   -5.4388    1.0000 </r>
       <r>   -5.4388    1.0000 </r>
       <r>   -5.4388    1.0000 </r>
       <r>   -4.7414    1.0000 </r>
       <r>    0.4288    1.0000 </r>
       <r>    0.4288    1.0000 </r>
       <r>    0.4288    1.0000 </r>
       <r>    1.1438    1.0000 </r>
       <r>    1.1438    1.0000 </r>
       <r>    1.1438    1.0000 </r>
       <r>    1.6841    1.0000 </r>
       <r>    1.6841    1.0000 </r>
       <r>   13.7792    1.0000 </r>
       <r>   14.0154    1.0000 </r>
       <r>   14.0154    1.0000 </r>
       <r>   14.0154    1.0000 </r>
       <r>   15.2489    1.0000 </r>
       <r>   15.2489    1.0000 </r>
       <r>   15.2489    1.0000 </r>
       <r>   15.5952    1.0000 </r>
       <r>   16.9731   -0.0000 </r>
       <r>   16.9744   -0.0000 </r>
       <r>   16.9966   -0.0000 </r>
       <r>   17.0057   -0.0000 </r>
       <r>   17.0205   -0.0000 </r>
       <r>   17.0499   -0.0000 </r>
      </set>
      <set comment="kpoint 33">
       <r>  -18.1592    1.0000 </r>
       <r>  -18.1592    1.0000 </r>
       <r>  -17.8641    1.0000 </r>
       <r>  -17.8641    1.0000 </r>
       <r>   -5.6258    1.0000 </r>
       <r>   -5.6258    1.0000 </r>
       <r>   -5.2746    1.0000 </r>
       <r>   -5.2746    1.0000 </r>
       <r>    0.5887    1.0000 </r>
       <r>    0.5887    1.0000 </r>
       <r>    1.2812    1.0000 </r>
       <r>    1.2812    1.0000 </r>
       <r>    1.3714    1.0000 </r>
       <r>    1.3714    1.0000 </r>
       <r>    1.4135    1.0000 </r>
       <r>    1.4135    1.0000 </r>
       <r>   14.0041    1.0000 </r>
       <r>   14.0041    1.0000 </r>
       <r>   14.5674    1.0000 </r>
       <r>   14.5674    1.0000 </r>
       <r>   14.5983    1.0000 </r>
       <r>   14.5983    1.0000 </r>
       <r>   15.1829    1.0000 </r>
       <r>   15.1829    1.0000 </r>
       <r>   16.9784   -0.0000 </r>
       <r>   16.9794   -0.0000 </r>
       <r>   17.0632   -0.0000 </r>
       <r>   17.0646   -0.0000 </r>
       <r>   17.0694   -0.0000 </r>
       <r>   17.0789   -0.0000 </r>
      </set>
      <set comment="kpoint 34">
       <r>  -17.9997    1.0000 </r>
       <r>  -17.9997    1.0000 </r>
       <r>  -17.9997    1.0000 </r>
       <r>  -17.9997    1.0000 </r>
       <r>   -5.6443    1.0000 </r>
       <r>   -5.6443    1.0000 </r>
       <r>   -5.6443    1.0000 </r>
       <r>   -5.6443    1.0000 </r>
       <r>    1.1507    1.0000 </r>
       <r>    1.1507    1.0000 </r>
       <r>    1.1507    1.0000 </r>
       <r>    1.1507    1.0000 </r>
       <r>    1.5242    1.0000 </r>
       <r>    1.5242    1.0000 </r>
       <r>    1.5242    1.0000 </r>
       <r>    1.5242    1.0000 </r>
       <r>   14.0560    1.0000 </r>
       <r>   14.0560    1.0000 </r>
       <r>   14.0560    1.0000 </r>
       <r>   14.0560    1.0000 </r>
       <r>   15.0468    1.0000 </r>
       <r>   15.0468    1.0000 </r>
       <r>   15.0468    1.0000 </r>
       <r>   15.0468    1.0000 </r>
       <r>   17.0561   -0.0000 </r>
       <r>   17.0564   -0.0000 </r>
       <r>   17.0595   -0.0000 </r>
       <r>   17.0654   -0.0000 </r>
       <r>   17.0924   -0.0000 </r>
       <r>   17.0975   -0.0000 </r>
      </set>
      <set comment="kpoint 35">
       <r>  -17.9840    1.0000 </r>
       <r>  -17.9840    1.0000 </r>
       <r>  -17.9840    1.0000 </r>
       <r>  -17.9840    1.0000 </r>
       <r>   -5.8462    1.0000 </r>
       <r>   -5.8462    1.0000 </r>
       <r>   -5.8462    1.0000 </r>
       <r>   -5.8462    1.0000 </r>
       <r>    1.5318    1.0000 </r>
       <r>    1.5318    1.0000 </r>
       <r>    1.5318    1.0000 </r>
       <r>    1.5318    1.0000 </r>
       <r>    1.5318    1.0000 </r>
       <r>    1.5318    1.0000 </r>
       <r>    1.5318    1.0000 </r>
       <r>    1.5318    1.0000 </r>
       <r>   13.7151    1.0000 </r>
       <r>   13.7151    1.0000 </r>
       <r>   13.7151    1.0000 </r>
       <r>   13.7151    1.0000 </r>
       <r>   15.3291    1.0000 </r>
       <r>   15.3291    1.0000 </r>
       <r>   15.3291    1.0000 </r>
       <r>   15.3291    1.0000 </r>
       <r>   17.1626   -0.0000 </r>
       <r>   17.1628   -0.0000 </r>
       <r>   17.1629   -0.0000 </r>
       <r>   17.1630   -0.0000 </r>
       <r>   17.1630   -0.0000 </r>
       <r>   17.1630   -0.0000 </r>
      </set>
     </set>
    </set>
   </array>
  </eigenvalues>
  <separator name="orbital magnetization" >
   <v name="MAGDIPOLOUT">      0.00000000      0.00000000      0.00000000</v>
  </separator>
  <dos>
   <i name="efermi">     16.51768450 </i>
   <total>
    <array>
     <dimension dim="1">gridpoints</dimension>
     <dimension dim="2">spin</dimension>
     <field>energy</field>
     <field>total</field>
     <field>integrated</field>
     <set>
      <set comment="spin 1">
       <r>   -22.2991     0.0000     0.0000 </r>
       <r>   -22.1601     0.0000     0.0000 </r>
       <r>   -22.0211     0.0000     0.0000 </r>
       <r>   -21.8821     0.0000     0.0000 </r>
       <r>   -21.7431     0.0000     0.0000 </r>
       <r>   -21.6041     0.0000     0.0000 </r>
       <r>   -21.4651     0.0000     0.0000 </r>
       <r>   -21.3261    -0.0000    -0.0000 </r>
       <r>   -21.1871    -0.0000    -0.0000 </r>
       <r>   -21.0481    -0.0000    -0.0000 </r>
       <r>   -20.9091    -0.0000    -0.0000 </r>
       <r>   -20.7701    -0.0000    -0.0000 </r>
       <r>   -20.6311    -0.0001    -0.0000 </r>
       <r>   -20.4920    -0.0026    -0.0004 </r>
       <r>   -20.3530     0.0442     0.0058 </r>
       <r>   -20.2140     0.3334     0.0521 </r>
       <r>   -20.0750     0.3710     0.1037 </r>
       <r>   -19.9360     0.5921     0.1860 </r>
       <r>   -19.7970     0.8914     0.3099 </r>
       <r>   -19.6580     0.3749     0.3620 </r>
       <r>   -19.5190     1.1520     0.5222 </r>
       <r>   -19.3800     1.0616     0.6697 </r>
       <r>   -19.2410     1.0947     0.8219 </r>
       <r>   -19.1020     1.1529     0.9822 </r>
       <r>   -18.9630     1.0195     1.1239 </r>
       <r>   -18.8240     1.9738     1.3982 </r>
       <r>   -18.6849     2.0919     1.6890 </r>
       <r>   -18.5459     1.1224     1.8451 </r>
       <r>   -18.4069     1.9295     2.1133 </r>
       <r>   -18.2679     2.9278     2.5203 </r>
       <r>   -18.1289     2.6618     2.8903 </r>
       <r>   -17.9899     3.7484     3.4113 </r>
       <r>   -17.8509     4.2093     3.9965 </r>
       <r>   -17.7119     3.6516     4.5041 </r>
       <r>   -17.5729     5.8817     5.3217 </r>
       <r>   -17.4339     4.7487     5.9818 </r>
       <r>   -17.2949     3.6670     6.4915 </r>
       <r>   -17.1559     7.4093     7.5215 </r>
       <r>   -17.0169     3.4442     8.0002 </r>
       <r>   -16.8778     0.0134     8.0021 </r>
       <r>   -16.7388    -0.0151     8.0000 </r>
       <r>   -16.5998    -0.0000     8.0000 </r>
       <r>   -16.4608    -0.0000     8.0000 </r>
       <r>   -16.3218    -0.0000     8.0000 </r>
       <r>   -16.1828     0.0000     8.0000 </r>
       <r>   -16.0438     0.0000     8.0000 </r>
       <r>   -15.9048     0.0000     8.0000 </r>
       <r>   -15.7658     0.0000     8.0000 </r>
       <r>   -15.6268     0.0000     8.0000 </r>
       <r>   -15.4878     0.0000     8.0000 </r>
       <r>   -15.3488     0.0000     8.0000 </r>
       <r>   -15.2098     0.0000     8.0000 </r>
       <r>   -15.0707     0.0000     8.0000 </r>
       <r>   -14.9317     0.0000     8.0000 </r>
       <r>   -14.7927     0.0000     8.0000 </r>
       <r>   -14.6537     0.0000     8.0000 </r>
       <r>   -14.5147     0.0000     8.0000 </r>
       <r>   -14.3757     0.0000     8.0000 </r>
       <r>   -14.2367     0.0000     8.0000 </r>
       <r>   -14.0977     0.0000     8.0000 </r>
       <r>   -13.9587     0.0000     8.0000 </r>
       <r>   -13.8197     0.0000     8.0000 </r>
       <r>   -13.6807     0.0000     8.0000 </r>
       <r>   -13.5417     0.0000     8.0000 </r>
       <r>   -13.4027     0.0000     8.0000 </r>
       <r>   -13.2636     0.0000     8.0000 </r>
       <r>   -13.1246     0.0000     8.0000 </r>
       <r>   -12.9856     0.0000     8.0000 </r>
       <r>   -12.8466     0.0000     8.0000 </r>
       <r>   -12.7076     0.0000     8.0000 </r>
       <r>   -12.5686     0.0000     8.0000 </r>
       <r>   -12.4296     0.0000     8.0000 </r>
       <r>   -12.2906     0.0000     8.0000 </r>
       <r>   -12.1516     0.0000     8.0000 </r>
       <r>   -12.0126     0.0000     8.0000 </r>
       <r>   -11.8736     0.0000     8.0000 </r>
       <r>   -11.7346     0.0000     8.0000 </r>
       <r>   -11.5956     0.0000     8.0000 </r>
       <r>   -11.4565     0.0000     8.0000 </r>
       <r>   -11.3175     0.0000     8.0000 </r>
       <r>   -11.1785     0.0000     8.0000 </r>
       <r>   -11.0395     0.0000     8.0000 </r>
       <r>   -10.9005     0.0000     8.0000 </r>
       <r>   -10.7615     0.0000     8.0000 </r>
       <r>   -10.6225     0.0000     8.0000 </r>
       <r>   -10.4835     0.0000     8.0000 </r>
       <r>   -10.3445     0.0000     8.0000 </r>
       <r>   -10.2055     0.0000     8.0000 </r>
       <r>   -10.0665     0.0000     8.0000 </r>
       <r>    -9.9275     0.0000     8.0000 </r>
       <r>    -9.7885     0.0000     8.0000 </r>
       <r>    -9.6494     0.0000     8.0000 </r>
       <r>    -9.5104     0.0000     8.0000 </r>
       <r>    -9.3714     0.0000     8.0000 </r>
       <r>    -9.2324     0.0000     8.0000 </r>
       <r>    -9.0934     0.0000     8.0000 </r>
       <r>    -8.9544     0.0000     8.0000 </r>
       <r>    -8.8154     0.0000     8.0000 </r>
       <r>    -8.6764     0.0000     8.0000 </r>
       <r>    -8.5374     0.0000     8.0000 </r>
       <r>    -8.3984     0.0000     8.0000 </r>
       <r>    -8.2594     0.0000     8.0000 </r>
       <r>    -8.1204     0.0000     8.0000 </r>
       <r>    -7.9814     0.0000     8.0000 </r>
       <r>    -7.8423     0.0000     8.0000 </r>
       <r>    -7.7033     0.0000     8.0000 </r>
       <r>    -7.5643     0.0000     8.0000 </r>
       <r>    -7.4253     0.0000     8.0000 </r>
       <r>    -7.2863     0.0000     8.0000 </r>
       <r>    -7.1473     0.0000     8.0000 </r>
       <r>    -7.0083     0.0000     8.0000 </r>
       <r>    -6.8693     0.0000     8.0000 </r>
       <r>    -6.7303    -0.0000     8.0000 </r>
       <r>    -6.5913    -0.0000     8.0000 </r>
       <r>    -6.4523    -0.0000     8.0000 </r>
       <r>    -6.3133    -0.0000     8.0000 </r>
       <r>    -6.1743    -0.0000     8.0000 </r>
       <r>    -6.0352    -0.0013     7.9998 </r>
       <r>    -5.8962     0.0148     8.0019 </r>
       <r>    -5.7572     0.0539     8.0094 </r>
       <r>    -5.6182     0.8963     8.1340 </r>
       <r>    -5.4792     0.6515     8.2245 </r>
       <r>    -5.3402     0.5025     8.2944 </r>
       <r>    -5.2012     1.8552     8.5523 </r>
       <r>    -5.0622     1.5623     8.7694 </r>
       <r>    -4.9232     2.0580     9.0555 </r>
       <r>    -4.7842     2.8978     9.4583 </r>
       <r>    -4.6452     1.3730     9.6492 </r>
       <r>    -4.5062     5.1695    10.3678 </r>
       <r>    -4.3672     5.4060    11.1193 </r>
       <r>    -4.2281     3.6384    11.6250 </r>
       <r>    -4.0891     5.3349    12.3666 </r>
       <r>    -3.9501     3.2524    12.8187 </r>
       <r>    -3.8111     2.1157    13.1128 </r>
       <r>    -3.6721     3.6482    13.6200 </r>
       <r>    -3.5331     2.3315    13.9441 </r>
       <r>    -3.3941     0.5016    14.0138 </r>
       <r>    -3.2551     1.3912    14.2072 </r>
       <r>    -3.1161     1.3037    14.3884 </r>
       <r>    -2.9771     2.9254    14.7950 </r>
       <r>    -2.8381     2.9385    15.2035 </r>
       <r>    -2.6991     0.3092    15.2465 </r>
       <r>    -2.5601     1.1265    15.4031 </r>
       <r>    -2.4210     3.8400    15.9369 </r>
       <r>    -2.2820     1.7499    16.1801 </r>
       <r>    -2.1430     2.7051    16.5562 </r>
       <r>    -2.0040     2.4230    16.8930 </r>
       <r>    -1.8650     1.4580    17.0956 </r>
       <r>    -1.7260     1.9581    17.3678 </r>
       <r>    -1.5870     2.1148    17.6618 </r>
       <r>    -1.4480     1.8620    17.9206 </r>
       <r>    -1.3090     3.3191    18.3820 </r>
       <r>    -1.1700     2.9550    18.7928 </r>
       <r>    -1.0310     1.6877    19.0274 </r>
       <r>    -0.8920     3.9411    19.5752 </r>
       <r>    -0.7530     3.5900    20.0743 </r>
       <r>    -0.6139     1.9806    20.3496 </r>
       <r>    -0.4749     4.8398    21.0224 </r>
       <r>    -0.3359     4.9766    21.7142 </r>
       <r>    -0.1969     3.4709    22.1966 </r>
       <r>    -0.0579     5.0121    22.8934 </r>
       <r>     0.0811     4.8906    23.5732 </r>
       <r>     0.2201     4.0374    24.1344 </r>
       <r>     0.3591     3.4042    24.6076 </r>
       <r>     0.4981     3.5291    25.0982 </r>
       <r>     0.6371     4.9204    25.7822 </r>
       <r>     0.7761     4.0630    26.3470 </r>
       <r>     0.9151     4.5665    26.9817 </r>
       <r>     1.0541     4.6246    27.6246 </r>
       <r>     1.1932     4.4650    28.2453 </r>
       <r>     1.3322     2.9029    28.6488 </r>
       <r>     1.4712     4.0678    29.2142 </r>
       <r>     1.6102     5.1353    29.9281 </r>
       <r>     1.7492     3.5481    30.4213 </r>
       <r>     1.8882     1.9922    30.6982 </r>
       <r>     2.0272     1.6212    30.9236 </r>
       <r>     2.1662     3.4613    31.4048 </r>
       <r>     2.3052     0.6008    31.4883 </r>
       <r>     2.4442     2.0813    31.7776 </r>
       <r>     2.5832     1.1544    31.9381 </r>
       <r>     2.7222     0.4002    31.9937 </r>
       <r>     2.8612     0.0501    32.0006 </r>
       <r>     3.0003    -0.0046    32.0000 </r>
       <r>     3.1393    -0.0000    32.0000 </r>
       <r>     3.2783    -0.0000    32.0000 </r>
       <r>     3.4173    -0.0000    32.0000 </r>
       <r>     3.5563     0.0000    32.0000 </r>
       <r>     3.6953     0.0000    32.0000 </r>
       <r>     3.8343     0.0000    32.0000 </r>
       <r>     3.9733     0.0000    32.0000 </r>
       <r>     4.1123     0.0000    32.0000 </r>
       <r>     4.2513     0.0000    32.0000 </r>
       <r>     4.3903     0.0000    32.0000 </r>
       <r>     4.5293     0.0000    32.0000 </r>
       <r>     4.6683     0.0000    32.0000 </r>
       <r>     4.8074     0.0000    32.0000 </r>
       <r>     4.9464     0.0000    32.0000 </r>
       <r>     5.0854     0.0000    32.0000 </r>
       <r>     5.2244     0.0000    32.0000 </r>
       <r>     5.3634     0.0000    32.0000 </r>
       <r>     5.5024     0.0000    32.0000 </r>
       <r>     5.6414     0.0000    32.0000 </r>
       <r>     5.7804     0.0000    32.0000 </r>
       <r>     5.9194     0.0000    32.0000 </r>
       <r>     6.0584     0.0000    32.0000 </r>
       <r>     6.1974     0.0000    32.0000 </r>
       <r>     6.3364     0.0000    32.0000 </r>
       <r>     6.4754     0.0000    32.0000 </r>
       <r>     6.6145     0.0000    32.0000 </r>
       <r>     6.7535     0.0000    32.0000 </r>
       <r>     6.8925     0.0000    32.0000 </r>
       <r>     7.0315     0.0000    32.0000 </r>
       <r>     7.1705     0.0000    32.0000 </r>
       <r>     7.3095     0.0000    32.0000 </r>
       <r>     7.4485     0.0000    32.0000 </r>
       <r>     7.5875     0.0000    32.0000 </r>
       <r>     7.7265     0.0000    32.0000 </r>
       <r>     7.8655     0.0000    32.0000 </r>
       <r>     8.0045     0.0000    32.0000 </r>
       <r>     8.1435     0.0000    32.0000 </r>
       <r>     8.2825     0.0000    32.0000 </r>
       <r>     8.4216     0.0000    32.0000 </r>
       <r>     8.5606     0.0000    32.0000 </r>
       <r>     8.6996     0.0000    32.0000 </r>
       <r>     8.8386     0.0000    32.0000 </r>
       <r>     8.9776     0.0000    32.0000 </r>
       <r>     9.1166     0.0000    32.0000 </r>
       <r>     9.2556     0.0000    32.0000 </r>
       <r>     9.3946     0.0000    32.0000 </r>
       <r>     9.5336     0.0000    32.0000 </r>
       <r>     9.6726     0.0000    32.0000 </r>
       <r>     9.8116     0.0000    32.0000 </r>
       <r>     9.9506    -0.0000    32.0000 </r>
       <r>    10.0896    -0.0000    32.0000 </r>
       <r>    10.2286    -0.0000    32.0000 </r>
       <r>    10.3677    -0.0000    32.0000 </r>
       <r>    10.5067    -0.0000    32.0000 </r>
       <r>    10.6457    -0.0001    32.0000 </r>
       <r>    10.7847    -0.0023    31.9997 </r>
       <r>    10.9237     0.0654    32.0087 </r>
       <r>    11.0627     0.0475    32.0153 </r>
       <r>    11.2017     0.1455    32.0356 </r>
       <r>    11.3407     0.5574    32.1130 </r>
       <r>    11.4797     0.8920    32.2370 </r>
       <r>    11.6187     0.8596    32.3565 </r>
       <r>    11.7577     0.0409    32.3622 </r>
       <r>    11.8967     0.7086    32.4607 </r>
       <r>    12.0357     2.4958    32.8077 </r>
       <r>    12.1748     2.4661    33.1505 </r>
       <r>    12.3138     0.7039    33.2483 </r>
       <r>    12.4528     0.4389    33.3093 </r>
       <r>    12.5918     2.2837    33.6268 </r>
       <r>    12.7308     2.4604    33.9688 </r>
       <r>    12.8698     2.5812    34.3276 </r>
       <r>    13.0088     0.9544    34.4603 </r>
       <r>    13.1478     2.5499    34.8147 </r>
       <r>    13.2868     5.5916    35.5920 </r>
       <r>    13.4258     1.9608    35.8646 </r>
       <r>    13.5648     1.7052    36.1016 </r>
       <r>    13.7038     2.0053    36.3803 </r>
       <r>    13.8428     5.5877    37.1571 </r>
       <r>    13.9819     5.5079    37.9227 </r>
       <r>    14.1209     7.3978    38.9511 </r>
       <r>    14.2599     5.4145    39.7037 </r>
       <r>    14.3989     4.9112    40.3864 </r>
       <r>    14.5379     4.1201    40.9591 </r>
       <r>    14.6769     3.4046    41.4324 </r>
       <r>    14.8159     4.6812    42.0831 </r>
       <r>    14.9549     1.3758    42.2744 </r>
       <r>    15.0939     2.8036    42.6641 </r>
       <r>    15.2329     4.8769    43.3420 </r>
       <r>    15.3719     4.1689    43.9215 </r>
       <r>    15.5109     3.5191    44.4107 </r>
       <r>    15.6499     7.6999    45.4811 </r>
       <r>    15.7890     3.3391    45.9452 </r>
       <r>    15.9280     0.9890    46.0827 </r>
       <r>    16.0670     2.8053    46.4727 </r>
       <r>    16.2060     3.9406    47.0204 </r>
       <r>    16.3450     3.1736    47.4616 </r>
       <r>    16.4840     2.4213    47.7982 </r>
       <r>    16.6230     6.8644    48.7524 </r>
       <r>    16.7620    14.9529    50.8309 </r>
       <r>    16.9010    15.5489    52.9924 </r>
       <r>    17.0400    19.8876    55.7569 </r>
       <r>    17.1790    22.5759    58.8951 </r>
       <r>    17.3180     6.7857    59.8384 </r>
       <r>    17.4570     0.8773    59.9603 </r>
       <r>    17.5961     0.2980    60.0018 </r>
       <r>    17.7351    -0.0118    60.0001 </r>
       <r>    17.8741    -0.0007    60.0000 </r>
       <r>    18.0131    -0.0000    60.0000 </r>
       <r>    18.1521    -0.0000    60.0000 </r>
       <r>    18.2911     0.0000    60.0000 </r>
       <r>    18.4301     0.0000    60.0000 </r>
       <r>    18.5691     0.0000    60.0000 </r>
       <r>    18.7081     0.0000    60.0000 </r>
       <r>    18.8471     0.0000    60.0000 </r>
       <r>    18.9861     0.0000    60.0000 </r>
       <r>    19.1251     0.0000    60.0000 </r>
       <r>    19.2641     0.0000    60.0000 </r>
       <r>    19.4032     0.0000    60.0000 </r>
      </set>
     </set>
    </array>
   </total>
  </dos>
 </calculation>
 <structure name="finalpos" >
  <crystal>
   <varray name="basis" >
    <v>       4.01259943       0.00000000       0.00000000 </v>
    <v>       0.00000000       4.01259943       0.00000000 </v>
    <v>       0.00000000       0.00000000       4.01259943 </v>
   </varray>
   <i name="volume">     64.60667956 </i>
   <varray name="rec_basis" >
    <v>       0.24921501       0.00000000       0.00000000 </v>
    <v>       0.00000000       0.24921501       0.00000000 </v>
    <v>       0.00000000       0.00000000       0.24921501 </v>
   </varray>
  </crystal>
  <varray name="positions" >
   <v>       0.00000000       0.00000000       0.00000000 </v>
   <v>       0.00000000       0.50000000       0.50000000 </v>
   <v>       0.50000000       0.00000000       0.50000000 </v>
   <v>       0.50000000       0.50000000       0.00000000 </v>
  </varray>
 </structure>
</modeling>
