72
Lattice="10.11386021 0.0 0.0 0.0 10.11386021 0.0 0.0 0.0 13.485146946" Properties=species:S:1:pos:R:3:forces:R:3 stress="-0.0058341507912733626 0.0012412239538279 -0.004514714486589019 0.0012412239538279 -0.026448532234131076 0.003753656071324444 -0.004514714486589019 0.003753656071324444 -0.012886900065793296" free_energy=-816.61018586 energy=-816.61196236 pbc="T T T"
Ta      10.04437000       9.99153000       0.30345000       1.94681000       1.55450500      -1.74922900
Ta       2.30818000       1.52558000       1.77493000      -3.86046900      -4.16466000       0.85350400
Ta       0.22892000       0.24864000       3.77865000       0.76763400      -0.80230300      -1.69382400
Ta       2.01327000       1.94565000       5.28114000      -1.40977400      -0.93895400      -0.73308100
Ta      10.06439000       0.40008000       6.61864000       0.49608500      -0.56867200       0.70274800
Ta       1.71307000       1.66254000       8.31391000      -0.32138100       1.08547100       0.68063200
Ta       9.82136000       0.41594000       9.58449000       0.44640700      -1.97452300       1.89110100
Ta       1.71120000       1.39031000      11.83417000      -1.38681000      -0.24794600      -0.78352500
Ta      10.10484000       3.11809000      13.36247000       0.59653800       0.36577100       0.96181900
Ta       0.41912000       3.40590000       3.16922000      -1.21593500      -0.59708700       0.88955000
Ta       9.93860000       3.43363000       6.71098000       1.13899100       0.78045500       0.12022400
Ta      10.08540000       3.28836000      10.31577000      -0.76546900       0.21517100      -0.46583100
Ta       1.68162000       5.18271000       1.61264000       0.71667100      -0.67909800       0.98967200
Ta       0.19870000       7.10334000       0.20599000      -0.89545800      -1.68629100      -0.87138100
Ta       2.06539000       4.99845000       5.07083000      -1.66268000      -2.14313900      -3.62412000
Ta       9.83142000       6.80312000       3.29421000       4.47626200      -3.06957500       2.45965400
Ta       1.65870000       4.89980000       8.63367000      -1.79571100       1.61647900       1.48857500
Ta       0.43602000       6.26012000       6.54655000      -3.68139700       1.46025400       0.92955000
Ta       1.49916000       5.26923000      11.84057000      -0.07982000      -1.78765300       1.61766300
Ta       9.85246000       6.70145000      10.30777000       0.73420600      -0.82692700      -0.69016100
Ta       1.95569000       8.66926000       1.95797000       0.07961000      -0.80326300      -0.20626800
Ta       1.75475000       8.11522000       4.93317000       0.28373000       1.20880800       0.65708600
Ta       0.96514000       8.22445000       8.29534000       2.33063700       1.13226400      -0.17983100
Ta       1.48657000       8.45608000      11.70427000       1.03044100       0.30746700       0.17314500
Ta       3.54862000       9.95388000      13.16057000       0.19228600      -0.00246800       0.83742200
Ta       3.94496000       0.17405000       3.99603000      -1.42629200       0.24141900      -2.47391700
Ta       3.23848000       9.98458000       6.74253000      -0.41335100       0.25749200       0.63103700
Ta       3.42252000       9.91124000       9.95036000      -3.52725600       2.83910400      -1.29606000
Ta       3.06709000       3.01859000       0.08683000       2.62081400       3.46124000      -2.50840100
Ta       3.53089000       2.99405000       3.33909000       2.17864700       3.51960300       0.75549200
Ta       3.33041000       3.71363000       7.02563000      -1.53461000      -1.09314100      -3.26865200
Ta       3.11048000       3.26908000      10.46487000       0.05793600       0.29953700      -0.43313600
Ta       3.29127000       6.64286000       0.15050000       0.06621700       1.20810100      -0.72192900
Ta       3.64167000       6.61084000       3.46413000      -0.25157100       0.48190400      -0.42857600
Ta       3.32260000       6.39510000       6.62576000       1.46574700       3.52952000       2.32578400
Ta       3.21583000       6.71478000      10.41307000      -2.33581400      -2.00194800      -2.21508100
Ta       5.23888000       1.52396000       1.27226000       0.13411800      -0.78462500       1.07292300
Ta       6.88535000       9.86225000      12.91337000      -1.37777000       0.54627800       2.07914700
Ta       5.26379000       2.08635000       5.36834000      -1.24350200      -0.40291200      -1.75219400
Ta       6.94309000      10.06082000       3.37317000      -0.45934900       0.26810200       0.70581100
Ta       4.66230000       2.32565000       8.30152000       2.53937600      -6.75431800       2.87925500
Ta       6.26625000       0.05129000       6.60488000       3.07814400       0.28307000       1.13382200
Ta       5.13914000       1.62439000      11.38677000      -0.23834500      -0.55420000       1.54859000
Ta       6.49714000      10.00680000       9.40799000       0.48868700       1.41882700       2.23578300
Ta       6.84703000       3.43324000       0.31671000       0.12997800      -1.93208100      -2.34966100
Ta       6.71940000       3.50063000       3.26786000       0.71354200      -1.25978200      -0.15359900
Ta       6.66042000       3.52937000       6.94026000       2.11886500       1.89050200      -0.16294700
Ta       6.82610000       3.35690000      10.15317000      -1.64118500       2.04752500      -0.20604900
Ta       5.20764000       5.17720000       1.65465000      -1.51792400      -0.81267400      -0.00340200
Ta       6.12368000       7.16732000      13.26957000       2.42114200      -1.60201700       0.34053400
Ta       5.45221000       5.05213000       5.36076000      -2.62358200       0.42037900      -3.83549900
Ta       6.85494000       6.66333000       3.15983000       0.36236300       1.27944700       1.19520800
Ta       4.65832000       4.91890000       8.97175000       2.05497500       1.72155500      -0.87965100
Ta       6.77951000       6.81800000       6.51781000       1.05437700       0.62195800       2.37782900
Ta       5.14270000       4.79022000      12.07267000      -1.32737200       0.61357700      -0.97052700
Ta       6.34791000       6.75872000      10.02047000       2.68843600      -0.67980700       0.60761200
Ta       4.98809000       8.41560000       1.77573000      -0.16103400       1.42138800       0.65434400
Ta       5.03911000       8.36755000       5.30725000       0.00953100      -2.41045300      -2.33784200
Ta       4.69182000       8.26239000       8.29370000       0.86318800      -1.36844700      -1.12902700
Ta       4.82515000       8.36453000      11.16507000       2.55722700       2.28450100       4.89392500
Ta       8.56058000       1.51707000       1.69417000      -1.04491400       1.24115500       0.77627200
Ta       8.42601000       1.86688000       4.96057000      -0.51832900       0.10498300      -0.10909200
Ta       8.14330000       1.97968000       8.16705000       0.95212400      -2.07181200       1.22798000
Ta       8.12111000       1.64616000      11.56687000       1.97590300      -0.38274700       0.89388100
Ta       8.65443000       4.90128000       1.58578000      -0.23809300       1.14090500       0.34643800
Ta       8.47108000       5.05975000       4.67955000      -0.01395600      -0.78837300       2.32469100
Ta       8.20558000       5.32567000       8.62556000       0.57238900      -1.74692500      -1.01793900
Ta       8.26169000       5.06172000      12.24717000       0.46657200       1.01562300      -2.19989900
Ta       8.89797000       8.47975000       2.05492000      -3.79833100       3.37456000      -2.53867900
Ta       8.95040000       8.40957000       5.41605000      -1.90503300      -0.27064400      -0.92814000
Ta       8.31320000       8.27133000       8.37068000      -0.33433100       0.31819200      -0.77190200
Ta       8.75821000       8.68430000      11.60847000      -1.79976400      -0.36762900      -0.56965000
86
Lattice="9.973162 0.151548 -0.069385 -0.001682 10.289156 0.047188 0.055065 -0.068355 21.901534" Properties=species:S:1:pos:R:3:forces:R:3 stress="0.029658902385102135 0.0029461171375994156 -0.005470626575254544 0.0029461171375994156 0.041271779366611014 -0.0021326050796409176 -0.005470626575254544 -0.0021326050796409176 0.029209844528022215" free_energy=-782.14139685 energy=-782.16155187 pbc="T T T"
Ta       0.90330000       0.30861000      10.83431000      -1.45675100      -1.82403400      -0.78306400
Ta       1.75450000       1.62669000       1.96026000      -0.84753600       0.57817700      -2.28215700
Ta       0.11113000       0.00461000       3.58368000       0.89529200       2.43718300       1.71435600
Ta       1.99955000       1.84864000       4.96454000       0.46015500       0.23629500       1.42934300
Ta       0.24169000       0.29838000       6.43983000       0.30979200      -1.92453200       2.14454100
Ta       1.73432000       1.49142000       8.56189000       0.70334300       0.53835000      -0.78053000
Ta       0.11224000       3.76956000       0.25619000       0.57964000       0.11019000      -0.21610100
Ta       0.42427000       3.51696000       3.50420000      -1.45888700       1.40108400      -0.07802700
Ta       0.45390000       3.58783000       6.88803000      -0.86425000       0.05342200       0.01528200
Ta       0.26430000       7.20781000      10.20877000      -0.29221100       0.02722500       0.22698800
Ta       1.82494000       5.58190000       1.69556000      -0.86785100      -0.95242400      -0.07983500
Ta       0.18736000       7.05417000       3.66952000       0.28544300      -1.15015400      -0.21020600
Ta       2.00416000       5.34188000       5.10639000      -0.77752900      -0.69016700       0.45834500
Ta       9.88716000       7.45025000       7.07465000       1.42603700      -1.43211800      -0.33619600
Ta       1.82839000       5.52405000       8.55077000       0.01641500       0.34268700      -0.54213800
Ta       1.80940000       8.96399000       1.80364000      -0.45919900      -1.03440800       0.39439600
Ta       1.75522000       8.61664000       5.11563000       1.51365400       0.25980000       0.82911600
Ta       2.29256000       8.52265000       8.87574000      -0.48568500       0.66185500      -0.62129500
Ta       3.34044000      10.28846000       0.12240000       1.85040800       0.22481700      -0.75744300
Ta       3.82002000       0.40433000       3.21511000      -0.99376600      -0.42188800       0.78956200
Ta       3.58958000       0.24980000       7.00921000      -0.00311400      -1.56959000      -0.80562400
Ta       3.20868000       3.57179000       0.43450000      -0.09272200      -0.87226600      -1.34388200
Ta       3.62027000       3.26406000       3.09805000       0.78056800       1.80947300       1.24895000
Ta       3.54925000       3.44686000       7.16457000      -1.30348200       2.03716400      -1.24519400
Ta       3.46201000       7.30189000       0.05995000       0.17452700      -0.27898000       0.47218400
Ta       3.38193000       6.93203000       3.19177000       1.50483900       2.01751800       2.05953600
Ta       3.51144000       7.14726000       6.73231000       0.25398300      -0.45982300       0.49870300
Ta       6.65158000       0.67923000      10.40812000       0.62270500       0.30246300      -0.97777700
Ta       5.68263000       1.92894000       1.03504000      -0.94710100       0.17783400       0.90968200
Ta       6.91606000       0.17587000       3.38677000      -0.53671200       1.41979900       0.28459900
Ta       5.12404000       1.93516000       5.51502000       0.62579400       0.24338000      -1.59780900
Ta       6.80880000       0.41176000       7.12989000       0.25840600      -0.79927400      -1.29127700
Ta       5.16317000       2.06977000       8.56392000       0.68519900      -0.51222200       1.12969300
Ta       7.51810000       3.65813000      21.39780000      -0.93351000      -0.31011800       1.58398600
Ta       6.66257000       3.72368000       3.35820000       0.26344000      -0.16267000      -0.00423700
Ta       6.72824000       3.94468000       7.02249000       0.54595100      -1.53728800      -0.30758200
Ta       7.32692000       6.96479000      10.34691000      -0.32659100      -0.30965700      -0.17156800
Ta       4.93914000       5.46024000       1.49007000       1.73470900      -0.44554200       0.32642700
Ta       6.73245000       7.14053000       3.30320000       0.32235400       0.12327000       0.54986300
Ta       5.32535000       5.45089000       5.06904000      -1.89870600      -0.63066400       0.10836400
Ta       7.00199000       6.95044000       6.69047000      -1.26210100       0.67835800       1.80807600
Ta       5.10430000       5.59285000       8.67867000       0.02860600       0.24455200      -0.33275300
Ta       5.29880000       9.07457000       1.74502000      -0.54100200      -0.93387000      -1.73041100
Ta       4.97072000       8.90164000       4.83082000       1.05208900      -0.79208400       1.49470200
Ta       5.61036000       8.75046000       8.92230000      -1.58781000       0.15194800      -1.44392200
Ta       8.39392000       2.27729000       1.78295000       0.87766600       0.43969000       2.69695600
Ta       8.47518000       2.11797000       5.36302000      -0.79195000       0.75617000      -1.14879700
Ta       8.94668000       1.77503000       8.39082000      -1.36979800       0.90845200       0.58141300
Ta       8.57410000       5.67479000       1.85473000       0.33896600      -1.10286800       0.19366800
Ta       8.34285000       5.22141000       5.00205000       0.98392900       0.58657300       0.22860600
Ta       8.48343000       5.35075000       8.66743000       1.24434100      -0.11306300      -0.91934400
Ta       8.83965000       8.85981000       2.14629000      -2.20253800      -1.95958400      -2.68234900
Ta       8.23779000       8.78019000       5.19982000       1.22327800       1.17225400      -0.33272900
Ta       8.41970000       9.13516000       8.80502000       0.79832200       0.14050500       0.24915600
Ce       7.45182000       6.74238000      21.28245000      -0.37427200       0.44751900       0.08173100
Ce       3.59892000       0.07120000      11.47015000       0.56811000       1.10221700      -0.25084500
Ce       1.09230000       8.56405000      13.26989000       0.12943300      -0.50279200       0.29588200
Ce       8.49051000       9.51833000      12.52310000       0.41395100      -0.25617900      -0.27801500
Ce       3.53744000       6.90401000      11.51730000       0.11729900      -0.97041700      -0.65109200
Ce       0.49829000       3.28051000      11.05222000      -2.79448000       0.28870500      -2.56588900
Ce       6.41966000       3.92338000      11.12994000       0.31461200      -0.17993200      -0.24058500
Ce       7.64018000       7.35961000      16.36718000      -0.35596900       0.27530800       0.23118800
Ce       2.99747000       3.31964000      10.50089000       1.92064900       0.27511100       0.22943900
Ce       1.39075000       3.97085000      13.24329000       0.80492100       1.48570200       2.58806100
Ce       7.03876000       5.52711000      13.46520000      -0.03717500      -0.32234100      -0.18816400
Ce       4.48265000       8.40106000      14.67211000       0.25695900       0.32584800       0.36009500
Ce       6.51949000       1.10258000      13.89528000      -0.08739800       0.41814200       0.18022100
Ce       3.91683000       5.51192000      16.15633000       0.06470100       0.07241500      -0.02093300
Ce       5.76116000       8.67362000      11.82685000      -0.61323400      -0.58916900       1.40566000
Ce       0.40074000       1.49602000      13.73982000       0.05903900      -0.07404200       0.40638000
Ce       3.76741000       2.17549000      14.91719000       0.13769100       0.00819200      -0.07569700
Ce       6.44119000      10.00086000      16.68368000      -0.21396700       0.11893300      -0.02886800
Ce       0.05961000       4.14943000      16.43596000       0.30496600      -0.33634100      -0.20079100
Ce       7.21358000       3.42695000      15.65558000      -0.27770300       0.11220000      -0.21049000
Ce       9.70592000       1.55371000      16.76181000       0.36278900      -0.22880300       0.04668300
Ce       0.79455000       7.71388000      17.99091000       0.26254200      -0.05231700       0.04712600
Ce       5.19624000       7.90503000      19.63753000      -0.51247100       0.32959100      -0.28295200
Ce       5.25190000       4.66509000      20.24071000      -0.19170900       0.02751300      -0.86486700
Ce       3.75699000       1.12514000      18.34895000      -1.63455000      -0.15951700      -0.96002300
Ce       8.07475000       8.53447000      18.83222000       0.93794000       0.23199600       0.01769800
Ce       1.48972000       0.84811000      20.36879000      -0.17736100       0.40061200       0.14889200
Ce       5.88260000       1.24016000      19.67113000       1.16531200       0.27885900       0.83924900
Ce       9.04169000       3.50893000      19.17874000       0.04135700       0.45618000      -0.61557700
Ce       8.57014000       0.54988000      21.82692000      -0.02412600      -1.07004200      -1.00117400
Ce       0.68120000       7.18844000      21.15928000      -0.61642600       0.30896100      -0.22966600
Ce       2.15119000       4.63686000      19.22892000      -0.01048000      -0.08331600       0.38307400
