72
Lattice="10.11386021 0.0 0.0 0.0 10.11386021 0.0 0.0 0.0 13.485146946" Properties=species:S:1:pos:R:3:forces:R:3 stress="-0.0058341507912733626 0.0012412239538279 -0.004514714486589019 0.0012412239538279 -0.026448532234131076 0.003753656071324444 -0.004514714486589019 0.003753656071324444 -0.012886900065793296" free_energy=-816.61018586 energy=-816.61196236 pbc="T T T"
Ta      10.04437000       9.99153000       0.30345000       1.94681000       1.55450500      -1.74922900
Ta       2.30818000       1.52558000       1.77493000      -3.86046900      -4.16466000       0.85350400
Ta       0.22892000       0.24864000       3.77865000       0.76763400      -0.80230300      -1.69382400
Ta       2.01327000       1.94565000       5.28114000      -1.40977400      -0.93895400      -0.73308100
Ta      10.06439000       0.40008000       6.61864000       0.49608500      -0.56867200       0.70274800
Ta       1.71307000       1.66254000       8.31391000      -0.32138100       1.08547100       0.68063200
Ta       9.82136000       0.41594000       9.58449000       0.44640700      -1.97452300       1.89110100
Ta       1.71120000       1.39031000      11.83417000      -1.38681000      -0.24794600      -0.78352500
Ta      10.10484000       3.11809000      13.36247000       0.59653800       0.36577100       0.96181900
Ta       0.41912000       3.40590000       3.16922000      -1.21593500      -0.59708700       0.88955000
Ta       9.93860000       3.43363000       6.71098000       1.13899100       0.78045500       0.12022400
Ta      10.08540000       3.28836000      10.31577000      -0.76546900       0.21517100      -0.46583100
Ta       1.68162000       5.18271000       1.61264000       0.71667100      -0.67909800       0.98967200
Ta       0.19870000       7.10334000       0.20599000      -0.89545800      -1.68629100      -0.87138100
Ta       2.06539000       4.99845000       5.07083000      -1.66268000      -2.14313900      -3.62412000
Ta       9.83142000       6.80312000       3.29421000       4.47626200      -3.06957500       2.45965400
Ta       1.65870000       4.89980000       8.63367000      -1.79571100       1.61647900       1.48857500
Ta       0.43602000       6.26012000       6.54655000      -3.68139700       1.46025400       0.92955000
Ta       1.49916000       5.26923000      11.84057000      -0.07982000      -1.78765300       1.61766300
Ta       9.85246000       6.70145000      10.30777000       0.73420600      -0.82692700      -0.69016100
Ta       1.95569000       8.66926000       1.95797000       0.07961000      -0.80326300      -0.20626800
Ta       1.75475000       8.11522000       4.93317000       0.28373000       1.20880800       0.65708600
Ta       0.96514000       8.22445000       8.29534000       2.33063700       1.13226400      -0.17983100
Ta       1.48657000       8.45608000      11.70427000       1.03044100       0.30746700       0.17314500
Ta       3.54862000       9.95388000      13.16057000       0.19228600      -0.00246800       0.83742200
Ta       3.94496000       0.17405000       3.99603000      -1.42629200       0.24141900      -2.47391700
Ta       3.23848000       9.98458000       6.74253000      -0.41335100       0.25749200       0.63103700
Ta       3.42252000       9.91124000       9.95036000      -3.52725600       2.83910400      -1.29606000
Ta       3.06709000       3.01859000       0.08683000       2.62081400       3.46124000      -2.50840100
Ta       3.53089000       2.99405000       3.33909000       2.17864700       3.51960300       0.75549200
Ta       3.33041000       3.71363000       7.02563000      -1.53461000      -1.09314100      -3.26865200
Ta       3.11048000       3.26908000      10.46487000       0.05793600       0.29953700      -0.43313600
Ta       3.29127000       6.64286000       0.15050000       0.06621700       1.20810100      -0.72192900
Ta       3.64167000       6.61084000       3.46413000      -0.25157100       0.48190400      -0.42857600
Ta       3.32260000       6.39510000       6.62576000       1.46574700       3.52952000       2.32578400
Ta       3.21583000       6.71478000      10.41307000      -2.33581400      -2.00194800      -2.21508100
Ta       5.23888000       1.52396000       1.27226000       0.13411800      -0.78462500       1.07292300
Ta       6.88535000       9.86225000      12.91337000      -1.37777000       0.54627800       2.07914700
Ta       5.26379000       2.08635000       5.36834000      -1.24350200      -0.40291200      -1.75219400
Ta       6.94309000      10.06082000       3.37317000      -0.45934900       0.26810200       0.70581100
Ta       4.66230000       2.32565000       8.30152000       2.53937600      -6.75431800       2.87925500
Ta       6.26625000       0.05129000       6.60488000       3.07814400       0.28307000       1.13382200
Ta       5.13914000       1.62439000      11.38677000      -0.23834500      -0.55420000       1.54859000
Ta       6.49714000      10.00680000       9.40799000       0.48868700       1.41882700       2.23578300
Ta       6.84703000       3.43324000       0.31671000       0.12997800      -1.93208100      -2.34966100
Ta       6.71940000       3.50063000       3.26786000       0.71354200      -1.25978200      -0.15359900
Ta       6.66042000       3.52937000       6.94026000       2.11886500       1.89050200      -0.16294700
Ta       6.82610000       3.35690000      10.15317000      -1.64118500       2.04752500      -0.20604900
Ta       5.20764000       5.17720000       1.65465000      -1.51792400      -0.81267400      -0.00340200
Ta       6.12368000       7.16732000      13.26957000       2.42114200      -1.60201700       0.34053400
Ta       5.45221000       5.05213000       5.36076000      -2.62358200       0.42037900      -3.83549900
Ta       6.85494000       6.66333000       3.15983000       0.36236300       1.27944700       1.19520800
Ta       4.65832000       4.91890000       8.97175000       2.05497500       1.72155500      -0.87965100
Ta       6.77951000       6.81800000       6.51781000       1.05437700       0.62195800       2.37782900
Ta       5.14270000       4.79022000      12.07267000      -1.32737200       0.61357700      -0.97052700
Ta       6.34791000       6.75872000      10.02047000       2.68843600      -0.67980700       0.60761200
Ta       4.98809000       8.41560000       1.77573000      -0.16103400       1.42138800       0.65434400
Ta       5.03911000       8.36755000       5.30725000       0.00953100      -2.41045300      -2.33784200
Ta       4.69182000       8.26239000       8.29370000       0.86318800      -1.36844700      -1.12902700
Ta       4.82515000       8.36453000      11.16507000       2.55722700       2.28450100       4.89392500
Ta       8.56058000       1.51707000       1.69417000      -1.04491400       1.24115500       0.77627200
Ta       8.42601000       1.86688000       4.96057000      -0.51832900       0.10498300      -0.10909200
Ta       8.14330000       1.97968000       8.16705000       0.95212400      -2.07181200       1.22798000
Ta       8.12111000       1.64616000      11.56687000       1.97590300      -0.38274700       0.89388100
Ta       8.65443000       4.90128000       1.58578000      -0.23809300       1.14090500       0.34643800
Ta       8.47108000       5.05975000       4.67955000      -0.01395600      -0.78837300       2.32469100
Ta       8.20558000       5.32567000       8.62556000       0.57238900      -1.74692500      -1.01793900
Ta       8.26169000       5.06172000      12.24717000       0.46657200       1.01562300      -2.19989900
Ta       8.89797000       8.47975000       2.05492000      -3.79833100       3.37456000      -2.53867900
Ta       8.95040000       8.40957000       5.41605000      -1.90503300      -0.27064400      -0.92814000
Ta       8.31320000       8.27133000       8.37068000      -0.33433100       0.31819200      -0.77190200
Ta       8.75821000       8.68430000      11.60847000      -1.79976400      -0.36762900      -0.56965000
