24
Lattice="6.443258363 -0.0 0.0 -0.015224619 6.663801788 -0.0 -0.826821354 -0.156109112 18.987307213" Properties=species:S:1:pos:R:3:forces:R:3 stress="0.031721346660659 -0.0003881032789565469 -0.005482953555778163 -0.0003881032789565469 0.03727920456745689 -0.0012767381407541758 -0.005482953555778163 -0.0012767381407541758 0.03169932661646288" free_energy=-268.13420987 energy=-268.13830101 pbc="T T T"
Ta      -0.51076000      -0.06628000      12.08564000      -0.10924200      -0.55047700       0.65700200
Ta      -0.49133000       3.21097000      12.06232000      -0.40725800       0.41681000       1.00807600
Ta       2.67000000       6.55212000      12.08380000       0.45128500      -0.01229800       0.88550700
Ta       2.66299000       3.20913000      12.09640000       0.71536800       0.27688200       0.85373900
Ta       6.17688000       6.61814000       5.22793000      -0.04955200      -0.00267000       1.18801500
Ta      -0.22203000       3.30494000       5.18807000      -0.09248800      -0.07643600       1.37307700
Ta       2.98592000       6.61954000       5.19839000      -0.10005400       0.02900500       1.32452000
Ta       3.01572000       3.26950000       5.15368000      -0.17015300      -0.02051100       1.49080100
Ta      -0.35869000      -0.04156000       8.59807000      -0.18065500      -0.37911100      -0.04809400
Ta       6.05937000       3.25398000       8.62526000       0.15239800       0.19154200      -0.29212600
Ta       2.85223000      -0.07052000       8.59397000       0.01749500      -0.02947100       0.00020900
Ta       2.85508000       3.25653000       8.61353000      -0.24222400      -0.02442500      -0.25842000
Ta       1.00848000       1.53228000      13.76438000       0.03932400       0.00791000      -1.01727300
Ta       0.98376000       4.87334000      13.81383000      -0.00654200       0.05260300      -1.43792700
Ta       4.21085000       1.54657000      13.81554000       0.11025500      -0.01847600      -1.50537300
Ta       4.19349000       4.87447000      13.82595000       0.13108500       0.02406300      -1.50683000
Ta       1.27271000       1.59373000       6.93822000       0.12348800       0.23072100      -1.24211300
Ta       1.31149000       4.94117000       6.88424000      -0.41331400      -0.13001200      -0.76514000
Ta       4.49203000       1.62784000       6.92948000       0.16246100      -0.25319900      -1.12619800
Ta       4.49563000       4.92387000       6.90649000       0.18379500       0.20949800      -0.96613300
Ta       1.17863000       1.59200000      10.38291000      -0.29217700      -0.29356500       0.03876500
Ta       1.18403000       4.88783000      10.34425000      -0.46690200       0.32589100       0.35990500
Ta       4.37632000       1.60506000      10.36638000       0.03403700      -0.33496900       0.32738200
Ta       4.35054000       4.88767000      10.32638000       0.40957000       0.36069700       0.65863000
