2
Lattice="2.989227344 0.0 0.0 0.0 2.989227344 0.0 0.0 0.0 2.989227344" Properties=species:S:1:pos:R:3:forces:R:3 stress="-0.6947670285216037 -0.0 -0.0 -0.0 -0.6947670285216037 -0.0 -0.0 -0.0 -0.6947670285216037" free_energy=-20.94000798 energy=-20.94002644 pbc="T T T"
Ta       0.00000000       0.00000000       0.00000000       0.00000000       0.00000000       0.00000000
Ta       1.49461000       1.49461000       1.49461000      -0.00000000      -0.00000000      -0.00000000
2
Lattice="3.321363715 0.0 0.0 0.0 3.321363715 0.0 0.0 0.0 3.321363715" Properties=species:S:1:pos:R:3:forces:R:3 stress="2.6807281695668595e-05 -0.0 0.0 -0.0 2.6807281695668595e-05 0.0 0.0 0.0 2.6807281695668595e-05" free_energy=-23.62900909 energy=-23.62911495 pbc="T T T"
Ta       0.00000000       0.00000000       0.00000000       0.00000000      -0.00000000       0.00000000
Ta       1.66068000       1.66068000       1.66068000      -0.00000000       0.00000000      -0.00000000
2
Lattice="3.653500087 0.0 0.0 0.0 3.653500087 0.0 0.0 0.0 3.653500087" Properties=species:S:1:pos:R:3:forces:R:3 stress="0.19941002499491722 0.0 0.0 0.0 0.19941002499491722 0.0 0.0 0.0 0.19941002499491722" free_energy=-22.07622998 energy=-22.07560829 pbc="T T T"
Ta       0.00000000       0.00000000       0.00000000       0.00000000       0.00000000      -0.00000000
Ta       1.82675000       1.82675000       1.82675000      -0.00000000      -0.00000000       0.00000000
