   4   4   0   0
  0.2630030E+02  0.4720705E-09  0.4720705E-09  0.4720705E-09  0.5000000E-15
  1.000000000000000E-004
  CAR 
 unknown system                          
     11.80808943    -27.05159549  301      9.48569112      1.00000000
    -27.052  0.0000E+00  0.0000E+00
    -26.922  0.0000E+00  0.0000E+00
    -26.793  0.0000E+00  0.0000E+00
    -26.663  0.0000E+00  0.0000E+00
    -26.533  0.0000E+00  0.0000E+00
    -26.404  0.0000E+00  0.0000E+00
    -26.274  0.0000E+00  0.0000E+00
    -26.145 -0.8989E-33 -0.1164E-33
    -26.015 -0.6865E-24 -0.8892E-25
    -25.886 -0.1832E-16 -0.2374E-17
    -25.756 -0.1683E-10 -0.2180E-11
    -25.627 -0.5947E-06 -0.7704E-07
    -25.497 -0.8219E-03 -0.1065E-03
    -25.368 -0.3366E-01 -0.4467E-02
    -25.238  0.3933E+00  0.4647E-01
    -25.109  0.2259E+01  0.3391E+00
    -24.979  0.4226E+01  0.8865E+00
    -24.850  0.7023E+01  0.1796E+01
    -24.720  0.1514E+02  0.3758E+01
    -24.590  0.2502E+02  0.6999E+01
    -24.461  0.8340E+01  0.8079E+01
    -24.331 -0.5971E+00  0.8002E+01
    -24.202 -0.1393E-01  0.8000E+01
    -24.072 -0.7115E-05  0.8000E+01
    -23.943 -0.1202E-09  0.8000E+01
    -23.813  0.0000E+00  0.8000E+01
    -23.684  0.0000E+00  0.8000E+01
    -23.554  0.0000E+00  0.8000E+01
    -23.425  0.0000E+00  0.8000E+01
    -23.295  0.0000E+00  0.8000E+01
    -23.166  0.0000E+00  0.8000E+01
    -23.036  0.0000E+00  0.8000E+01
    -22.907  0.0000E+00  0.8000E+01
    -22.777  0.0000E+00  0.8000E+01
    -22.647  0.0000E+00  0.8000E+01
    -22.518  0.0000E+00  0.8000E+01
    -22.388  0.0000E+00  0.8000E+01
    -22.259  0.0000E+00  0.8000E+01
    -22.129  0.0000E+00  0.8000E+01
    -22.000  0.0000E+00  0.8000E+01
    -21.870  0.0000E+00  0.8000E+01
    -21.741  0.0000E+00  0.8000E+01
    -21.611  0.0000E+00  0.8000E+01
    -21.482  0.0000E+00  0.8000E+01
    -21.352  0.0000E+00  0.8000E+01
    -21.223  0.0000E+00  0.8000E+01
    -21.093  0.0000E+00  0.8000E+01
    -20.964  0.0000E+00  0.8000E+01
    -20.834  0.0000E+00  0.8000E+01
    -20.705  0.0000E+00  0.8000E+01
    -20.575  0.0000E+00  0.8000E+01
    -20.445  0.0000E+00  0.8000E+01
    -20.316  0.0000E+00  0.8000E+01
    -20.186  0.0000E+00  0.8000E+01
    -20.057  0.0000E+00  0.8000E+01
    -19.927  0.0000E+00  0.8000E+01
    -19.798  0.0000E+00  0.8000E+01
    -19.668  0.0000E+00  0.8000E+01
    -19.539  0.0000E+00  0.8000E+01
    -19.409  0.0000E+00  0.8000E+01
    -19.280  0.0000E+00  0.8000E+01
    -19.150  0.0000E+00  0.8000E+01
    -19.021  0.0000E+00  0.8000E+01
    -18.891  0.0000E+00  0.8000E+01
    -18.762  0.0000E+00  0.8000E+01
    -18.632  0.0000E+00  0.8000E+01
    -18.502  0.0000E+00  0.8000E+01
    -18.373  0.0000E+00  0.8000E+01
    -18.243  0.0000E+00  0.8000E+01
    -18.114  0.0000E+00  0.8000E+01
    -17.984  0.0000E+00  0.8000E+01
    -17.855  0.0000E+00  0.8000E+01
    -17.725  0.0000E+00  0.8000E+01
    -17.596  0.0000E+00  0.8000E+01
    -17.466  0.0000E+00  0.8000E+01
    -17.337  0.0000E+00  0.8000E+01
    -17.207  0.0000E+00  0.8000E+01
    -17.078  0.0000E+00  0.8000E+01
    -16.948  0.0000E+00  0.8000E+01
    -16.819  0.0000E+00  0.8000E+01
    -16.689  0.0000E+00  0.8000E+01
    -16.559  0.0000E+00  0.8000E+01
    -16.430  0.0000E+00  0.8000E+01
    -16.300  0.0000E+00  0.8000E+01
    -16.171  0.0000E+00  0.8000E+01
    -16.041  0.0000E+00  0.8000E+01
    -15.912  0.0000E+00  0.8000E+01
    -15.782  0.0000E+00  0.8000E+01
    -15.653  0.0000E+00  0.8000E+01
    -15.523  0.0000E+00  0.8000E+01
    -15.394  0.0000E+00  0.8000E+01
    -15.264  0.0000E+00  0.8000E+01
    -15.135  0.0000E+00  0.8000E+01
    -15.005  0.0000E+00  0.8000E+01
    -14.876  0.0000E+00  0.8000E+01
    -14.746  0.0000E+00  0.8000E+01
    -14.616  0.0000E+00  0.8000E+01
    -14.487  0.0000E+00  0.8000E+01
    -14.357  0.0000E+00  0.8000E+01
    -14.228  0.0000E+00  0.8000E+01
    -14.098  0.0000E+00  0.8000E+01
    -13.969  0.0000E+00  0.8000E+01
    -13.839  0.0000E+00  0.8000E+01
    -13.710  0.0000E+00  0.8000E+01
    -13.580  0.0000E+00  0.8000E+01
    -13.451  0.0000E+00  0.8000E+01
    -13.321  0.0000E+00  0.8000E+01
    -13.192  0.0000E+00  0.8000E+01
    -13.062  0.0000E+00  0.8000E+01
    -12.933  0.0000E+00  0.8000E+01
    -12.803  0.0000E+00  0.8000E+01
    -12.674  0.0000E+00  0.8000E+01
    -12.544  0.0000E+00  0.8000E+01
    -12.414  0.0000E+00  0.8000E+01
    -12.285  0.0000E+00  0.8000E+01
    -12.155  0.0000E+00  0.8000E+01
    -12.026  0.0000E+00  0.8000E+01
    -11.896  0.0000E+00  0.8000E+01
    -11.767  0.0000E+00  0.8000E+01
    -11.637  0.0000E+00  0.8000E+01
    -11.508  0.0000E+00  0.8000E+01
    -11.378  0.0000E+00  0.8000E+01
    -11.249  0.0000E+00  0.8000E+01
    -11.119  0.0000E+00  0.8000E+01
    -10.990  0.0000E+00  0.8000E+01
    -10.860  0.0000E+00  0.8000E+01
    -10.731  0.0000E+00  0.8000E+01
    -10.601  0.0000E+00  0.8000E+01
    -10.471  0.0000E+00  0.8000E+01
    -10.342  0.0000E+00  0.8000E+01
    -10.212  0.0000E+00  0.8000E+01
    -10.083 -0.4363E-28  0.8000E+01
     -9.953 -0.9788E-20  0.8000E+01
     -9.824 -0.7152E-13  0.8000E+01
     -9.694 -0.1740E-07  0.8000E+01
     -9.565 -0.1296E-03  0.8000E+01
     -9.435 -0.2282E-01  0.7997E+01
     -9.306  0.2043E+00  0.8023E+01
     -9.176  0.1339E+01  0.8197E+01
     -9.047  0.4023E+01  0.8718E+01
     -8.917  0.5547E+01  0.9437E+01
     -8.788  0.1173E+02  0.1096E+02
     -8.658  0.1259E+02  0.1259E+02
     -8.528  0.9076E+01  0.1376E+02
     -8.399  0.3549E+01  0.1422E+02
     -8.269  0.5970E+01  0.1500E+02
     -8.140  0.2774E+01  0.1535E+02
     -8.010  0.5260E+01  0.1604E+02
     -7.881  0.7184E+01  0.1697E+02
     -7.751  0.5687E+01  0.1770E+02
     -7.622  0.5924E+01  0.1847E+02
     -7.492  0.8031E+01  0.1951E+02
     -7.363  0.1390E+02  0.2131E+02
     -7.233  0.1165E+02  0.2282E+02
     -7.104  0.1528E+02  0.2480E+02
     -6.974  0.1326E+02  0.2652E+02
     -6.845  0.1574E+02  0.2856E+02
     -6.715  0.1264E+02  0.3019E+02
     -6.585  0.8521E+01  0.3130E+02
     -6.456  0.4788E+01  0.3192E+02
     -6.326  0.6955E+00  0.3201E+02
     -6.197 -0.6520E-01  0.3200E+02
     -6.067 -0.1371E-02  0.3200E+02
     -5.938 -0.8189E-06  0.3200E+02
     -5.808 -0.1668E-10  0.3200E+02
     -5.679  0.0000E+00  0.3200E+02
     -5.549  0.0000E+00  0.3200E+02
     -5.420  0.0000E+00  0.3200E+02
     -5.290  0.0000E+00  0.3200E+02
     -5.161  0.0000E+00  0.3200E+02
     -5.031  0.0000E+00  0.3200E+02
     -4.902  0.0000E+00  0.3200E+02
     -4.772  0.0000E+00  0.3200E+02
     -4.643  0.0000E+00  0.3200E+02
     -4.513  0.0000E+00  0.3200E+02
     -4.383  0.0000E+00  0.3200E+02
     -4.254  0.0000E+00  0.3200E+02
     -4.124  0.0000E+00  0.3200E+02
     -3.995  0.0000E+00  0.3200E+02
     -3.865  0.0000E+00  0.3200E+02
     -3.736  0.0000E+00  0.3200E+02
     -3.606  0.0000E+00  0.3200E+02
     -3.477  0.0000E+00  0.3200E+02
     -3.347  0.0000E+00  0.3200E+02
     -3.218  0.0000E+00  0.3200E+02
     -3.088  0.0000E+00  0.3200E+02
     -2.959  0.0000E+00  0.3200E+02
     -2.829  0.0000E+00  0.3200E+02
     -2.700  0.0000E+00  0.3200E+02
     -2.570  0.0000E+00  0.3200E+02
     -2.440  0.0000E+00  0.3200E+02
     -2.311  0.0000E+00  0.3200E+02
     -2.181  0.0000E+00  0.3200E+02
     -2.052  0.0000E+00  0.3200E+02
     -1.922  0.0000E+00  0.3200E+02
     -1.793  0.0000E+00  0.3200E+02
     -1.663  0.0000E+00  0.3200E+02
     -1.534  0.0000E+00  0.3200E+02
     -1.404  0.0000E+00  0.3200E+02
     -1.275  0.0000E+00  0.3200E+02
     -1.145  0.0000E+00  0.3200E+02
     -1.016  0.0000E+00  0.3200E+02
     -0.886  0.0000E+00  0.3200E+02
     -0.757  0.0000E+00  0.3200E+02
     -0.627  0.0000E+00  0.3200E+02
     -0.497  0.0000E+00  0.3200E+02
     -0.368  0.0000E+00  0.3200E+02
     -0.238  0.0000E+00  0.3200E+02
     -0.109  0.0000E+00  0.3200E+02
      0.021  0.0000E+00  0.3200E+02
      0.150  0.0000E+00  0.3200E+02
      0.280  0.0000E+00  0.3200E+02
      0.409  0.0000E+00  0.3200E+02
      0.539  0.0000E+00  0.3200E+02
      0.668  0.0000E+00  0.3200E+02
      0.798  0.0000E+00  0.3200E+02
      0.927  0.0000E+00  0.3200E+02
      1.057  0.0000E+00  0.3200E+02
      1.186  0.0000E+00  0.3200E+02
      1.316  0.0000E+00  0.3200E+02
      1.446  0.0000E+00  0.3200E+02
      1.575  0.0000E+00  0.3200E+02
      1.705  0.0000E+00  0.3200E+02
      1.834  0.0000E+00  0.3200E+02
      1.964  0.0000E+00  0.3200E+02
      2.093  0.0000E+00  0.3200E+02
      2.223  0.0000E+00  0.3200E+02
      2.352  0.0000E+00  0.3200E+02
      2.482  0.0000E+00  0.3200E+02
      2.611  0.0000E+00  0.3200E+02
      2.741  0.0000E+00  0.3200E+02
      2.870  0.0000E+00  0.3200E+02
      3.000  0.0000E+00  0.3200E+02
      3.129  0.0000E+00  0.3200E+02
      3.259  0.0000E+00  0.3200E+02
      3.388  0.0000E+00  0.3200E+02
      3.518  0.0000E+00  0.3200E+02
      3.648  0.0000E+00  0.3200E+02
      3.777  0.0000E+00  0.3200E+02
      3.907  0.0000E+00  0.3200E+02
      4.036  0.0000E+00  0.3200E+02
      4.166  0.0000E+00  0.3200E+02
      4.295  0.0000E+00  0.3200E+02
      4.425  0.0000E+00  0.3200E+02
      4.554  0.0000E+00  0.3200E+02
      4.684  0.0000E+00  0.3200E+02
      4.813  0.0000E+00  0.3200E+02
      4.943  0.0000E+00  0.3200E+02
      5.072  0.0000E+00  0.3200E+02
      5.202  0.0000E+00  0.3200E+02
      5.331  0.0000E+00  0.3200E+02
      5.461  0.0000E+00  0.3200E+02
      5.591  0.0000E+00  0.3200E+02
      5.720 -0.4977E-34  0.3200E+02
      5.850 -0.6782E-25  0.3200E+02
      5.979 -0.3139E-17  0.3200E+02
      6.109 -0.4687E-11  0.3200E+02
      6.238 -0.2316E-06  0.3200E+02
      6.368 -0.3324E-03  0.3200E+02
      6.497 -0.5321E-02  0.3200E+02
      6.627  0.1131E+00  0.3201E+02
      6.756  0.1431E+00  0.3203E+02
      6.886  0.6768E+00  0.3212E+02
      7.015  0.1302E+01  0.3229E+02
      7.145  0.1461E+01  0.3248E+02
      7.274  0.9302E+00  0.3260E+02
      7.404  0.1122E+01  0.3274E+02
      7.534  0.3932E+01  0.3325E+02
      7.663  0.6552E+01  0.3410E+02
      7.793  0.3052E+01  0.3450E+02
      7.922  0.4668E+01  0.3510E+02
      8.052  0.9385E+01  0.3632E+02
      8.181  0.8964E+01  0.3748E+02
      8.311  0.1183E+02  0.3901E+02
      8.440  0.6447E+01  0.3985E+02
      8.570  0.5410E+01  0.4055E+02
      8.699  0.6350E+01  0.4137E+02
      8.829  0.5304E+01  0.4206E+02
      8.958  0.8829E+01  0.4320E+02
      9.088  0.9254E+01  0.4440E+02
      9.217  0.8701E+01  0.4553E+02
      9.347  0.8651E+01  0.4665E+02
      9.477  0.9807E+01  0.4792E+02
      9.606  0.1043E+02  0.4927E+02
      9.736  0.1473E+02  0.5118E+02
      9.865  0.2187E+02  0.5401E+02
      9.995  0.3489E+02  0.5853E+02
     10.124  0.1221E+02  0.6011E+02
     10.254 -0.8338E+00  0.6000E+02
     10.383 -0.2199E-01  0.6000E+02
     10.513 -0.1569E-04  0.6000E+02
     10.642 -0.4148E-09  0.6000E+02
     10.772 -0.3598E-15  0.6000E+02
     10.901  0.0000E+00  0.6000E+02
     11.031  0.0000E+00  0.6000E+02
     11.160  0.0000E+00  0.6000E+02
     11.290  0.0000E+00  0.6000E+02
     11.419  0.0000E+00  0.6000E+02
     11.549  0.0000E+00  0.6000E+02
     11.679  0.0000E+00  0.6000E+02
     11.808  0.0000E+00  0.6000E+02
