    4    4    1    1
  0.2630030E+02  0.4720705E-09  0.4720705E-09  0.4720705E-09  0.5000000E-15
  1.000000000000000E-004
  CAR 
 unknown system                          
     48     20     30
 
  0.0000000E+00  0.0000000E+00  0.0000000E+00  0.2915452E-02
      1        -25.285246   1.000000
      2        -24.568132   1.000000
      3        -24.568132   1.000000
      4        -24.568132   1.000000
      5         -9.107237   1.000000
      6         -9.107237   1.000000
      7         -9.107237   1.000000
      8         -7.464189   1.000000
      9         -7.464189   1.000000
     10         -7.464189   1.000000
     11         -7.464189   1.000000
     12         -7.464189   1.000000
     13         -7.464189   1.000000
     14         -6.422777   1.000000
     15         -6.422777   1.000000
     16         -6.422777   1.000000
     17          6.602683   1.000000
     18          6.602683   1.000000
     19          6.602683   1.000000
     20          6.626852   1.000000
     21          7.259100   1.000000
     22          7.259100   1.000000
     23          7.259100   1.000000
     24          9.267147   1.004198
     25          9.868994  -0.000000
     26          9.868994  -0.000000
     27          9.868994  -0.000000
     28         10.010829  -0.000000
     29         10.010847  -0.000000
     30         10.010908  -0.000000
 
  0.1428571E+00  0.0000000E+00  0.0000000E+00  0.1749271E-01
      1        -25.251982   1.000000
      2        -24.606096   1.000000
      3        -24.567433   1.000000
      4        -24.567432   1.000000
      5         -9.038944   1.000000
      6         -9.038944   1.000000
      7         -8.997077   1.000000
      8         -7.562949   1.000000
      9         -7.562949   1.000000
     10         -7.484791   1.000000
     11         -7.484791   1.000000
     12         -7.417446   1.000000
     13         -7.417446   1.000000
     14         -6.591653   1.000000
     15         -6.480033   1.000000
     16         -6.480033   1.000000
     17          6.784424   1.000000
     18          6.840103   1.000000
     19          6.840103   1.000000
     20          6.939764   1.000000
     21          7.347430   1.000000
     22          7.526429   1.000000
     23          7.526429   1.000000
     24          9.172474   1.000044
     25          9.821139  -0.000011
     26          9.890086  -0.000000
     27          9.890089  -0.000000
     28         10.002095  -0.000000
     29         10.002777  -0.000000
     30         10.038977  -0.000000
 
  0.2857143E+00  0.0000000E+00  0.0000000E+00  0.1749271E-01
      1        -25.157703   1.000000
      2        -24.711466   1.000000
      3        -24.566015   1.000000
      4        -24.566015   1.000000
      5         -8.842004   1.000000
      6         -8.842004   1.000000
      7         -8.680195   1.000000
      8         -7.827167   1.000000
      9         -7.827167   1.000000
     10         -7.530543   1.000000
     11         -7.530543   1.000000
     12         -7.284294   1.000000
     13         -7.284294   1.000000
     14         -7.035069   1.000000
     15         -6.636800   1.000000
     16         -6.636800   1.000000
     17          7.289843   1.000000
     18          7.468914   1.000000
     19          7.468914   1.000000
     20          7.603200   1.000000
     21          7.731465   1.000000
     22          8.260084   1.000000
     23          8.260084   1.000000
     24          8.888052   1.000000
     25          9.687556  -0.007524
     26          9.945519  -0.000000
     27          9.946060  -0.000000
     28          9.949326  -0.000000
     29          9.953334  -0.000000
     30          9.956771  -0.000000
 
  0.4285714E+00  0.0000000E+00  0.0000000E+00  0.1749271E-01
      1        -25.018623   1.000000
      2        -24.859635   1.000000
      3        -24.564881   1.000000
      4        -24.564881   1.000000
      5         -8.541135   1.000000
      6         -8.541135   1.000000
      7         -8.196903   1.000000
      8         -8.180764   1.000000
      9         -8.180764   1.000000
     10         -7.614966   1.000000
     11         -7.566676   1.000000
     12         -7.566676   1.000000
     13         -7.085326   1.000000
     14         -7.085326   1.000000
     15         -6.854593   1.000000
     16         -6.854593   1.000000
     17          7.963300   1.000000
     18          7.995150   1.000000
     19          8.159770   1.000000
     20          8.159770   1.000000
     21          8.343256   1.000000
     22          8.458726   1.000000
     23          9.184081   1.000085
     24          9.184081   1.000085
     25          9.706186  -0.003903
     26          9.749193  -0.000620
     27          9.749193  -0.000620
     28          9.757839  -0.000407
     29          9.757839  -0.000407
     30         10.032475  -0.000000
 
  0.1428571E+00  0.1428571E+00  0.0000000E+00  0.3498542E-01
      1        -25.220029   1.000000
      2        -24.603545   1.000000
      3        -24.603545   1.000000
      4        -24.568589   1.000000
      5         -8.971389   1.000000
      6         -8.947732   1.000000
      7         -8.947732   1.000000
      8         -7.754451   1.000000
      9         -7.514630   1.000000
     10         -7.514630   1.000000
     11         -7.426295   1.000000
     12         -7.426295   1.000000
     13         -7.388569   1.000000
     14         -6.828878   1.000000
     15         -6.539893   1.000000
     16         -6.443755   1.000000
     17          6.955439   1.000000
     18          7.019250   1.000000
     19          7.019250   1.000000
     20          7.214144   1.000000
     21          7.607035   1.000000
     22          7.607035   1.000000
     23          7.879880   1.000000
     24          9.111429   1.000001
     25          9.802657  -0.000035
     26          9.882610  -0.000000
     27          9.911977  -0.000000
     28         10.004267  -0.000000
     29         10.022521  -0.000000
     30         10.041740  -0.000000
 
  0.2857143E+00  0.1428571E+00  0.0000000E+00  0.6997085E-01
      1        -25.129715   1.000000
      2        -24.703538   1.000000
      3        -24.596820   1.000000
      4        -24.572479   1.000000
      5         -8.806307   1.000000
      6         -8.776579   1.000000
      7         -8.684270   1.000000
      8         -8.033733   1.000000
      9         -7.774784   1.000000
     10         -7.439098   1.000000
     11         -7.376714   1.000000
     12         -7.360557   1.000000
     13         -7.268079   1.000000
     14         -7.261789   1.000000
     15         -6.703642   1.000000
     16         -6.544975   1.000000
     17          7.403408   1.000000
     18          7.517320   1.000000
     19          7.637389   1.000000
     20          7.838211   1.000000
     21          7.922563   1.000000
     22          8.316556   1.000000
     23          8.692751   1.000000
     24          8.911258   1.000000
     25          9.670173  -0.012769
     26          9.874997  -0.000000
     27          9.941088  -0.000000
     28          9.957557  -0.000000
     29          9.973825  -0.000000
     30          9.987230  -0.000000
 
  0.4285714E+00  0.1428571E+00  0.0000000E+00  0.6997085E-01
      1        -24.996690   1.000000
      2        -24.844744   1.000000
      3        -24.587695   1.000000
      4        -24.579139   1.000000
      5         -8.590472   1.000000
      6         -8.479192   1.000000
      7         -8.324073   1.000000
      8         -8.278850   1.000000
      9         -8.123384   1.000000
     10         -7.782363   1.000000
     11         -7.429932   1.000000
     12         -7.392892   1.000000
     13         -7.170391   1.000000
     14         -7.023373   1.000000
     15         -6.930578   1.000000
     16         -6.762235   1.000000
     17          8.074978   1.000000
     18          8.179167   1.000000
     19          8.184350   1.000000
     20          8.268026   1.000000
     21          8.530218   1.000000
     22          8.575722   1.000000
     23          9.203449   1.000243
     24          9.471625   0.617742
     25          9.587805  -0.027185
     26          9.623641  -0.032495
     27          9.756053  -0.000445
     28          9.767291  -0.000252
     29          9.861702  -0.000001
     30          9.883587  -0.000000
 
  0.2857143E+00  0.2857143E+00  0.0000000E+00  0.3498542E-01
      1        -25.050644   1.000000
      2        -24.682007   1.000000
      3        -24.682007   1.000000
      4        -24.591263   1.000000
      5         -8.682001   1.000000
      6         -8.682001   1.000000
      7         -8.588152   1.000000
      8         -8.309797   1.000000
      9         -7.681944   1.000000
     10         -7.624885   1.000000
     11         -7.624885   1.000000
     12         -7.203927   1.000000
     13         -7.203927   1.000000
     14         -7.186563   1.000000
     15         -6.885709   1.000000
     16         -6.522215   1.000000
     17          7.571118   1.000000
     18          8.103583   1.000000
     19          8.103583   1.000000
     20          8.424017   1.000000
     21          8.471085   1.000000
     22          8.471085   1.000000
     23          8.929512   1.000000
     24          9.470510   0.626843
     25          9.587000  -0.026433
     26          9.742874  -0.000835
     27          9.742874  -0.000835
     28          9.932753  -0.000000
     29          9.973404  -0.000000
     30         10.022291  -0.000000
 
  0.4285714E+00  0.2857143E+00  0.0000000E+00  0.6997085E-01
      1        -24.934660   1.000000
      2        -24.802946   1.000000
      3        -24.651556   1.000000
      4        -24.619149   1.000000
      5         -8.638502   1.000000
      6         -8.519065   1.000000
      7         -8.445280   1.000000
      8         -8.301099   1.000000
      9         -8.099378   1.000000
     10         -7.958819   1.000000
     11         -7.399680   1.000000
     12         -7.140486   1.000000
     13         -7.136477   1.000000
     14         -7.118706   1.000000
     15         -6.912356   1.000000
     16         -6.658559   1.000000
     17          8.077277   1.000000
     18          8.532150   1.000000
     19          8.676497   1.000000
     20          8.718006   1.000000
     21          8.854163   1.000000
     22          8.978485   1.000000
     23          9.244037   1.001668
     24          9.359863   1.035292
     25          9.523197   0.205995
     26          9.539833   0.108006
     27          9.758731  -0.000389
     28          9.783276  -0.000107
     29          9.967504  -0.000000
     30         10.010522  -0.000000
 
  0.4285714E+00  0.4285714E+00  0.0000000E+00  0.3498542E-01
      1        -24.844504   1.000000
      2        -24.743303   1.000000
      3        -24.743303   1.000000
      4        -24.677578   1.000000
      5         -8.612700   1.000000
      6         -8.579729   1.000000
      7         -8.579729   1.000000
      8         -8.390656   1.000000
      9         -8.030820   1.000000
     10         -7.710336   1.000000
     11         -7.710336   1.000000
     12         -7.417734   1.000000
     13         -6.924477   1.000000
     14         -6.859501   1.000000
     15         -6.859501   1.000000
     16         -6.684290   1.000000
     17          8.346043   1.000000
     18          8.805171   1.000000
     19          8.805171   1.000000
     20          9.034048   1.000000
     21          9.122646   1.000002
     22          9.247377   1.001921
     23          9.247377   1.001921
     24          9.457424   0.728946
     25          9.534099   0.138771
     26          9.534099   0.138771
     27          9.636372  -0.027347
     28          9.762577  -0.000321
     29          9.964928  -0.000000
     30         10.001157  -0.000000
 
  0.1428571E+00  0.1428571E+00  0.1428571E+00  0.2332362E-01
      1        -25.189670   1.000000
      2        -24.602827   1.000000
      3        -24.602827   1.000000
      4        -24.602827   1.000000
      5         -8.906264   1.000000
      6         -8.906264   1.000000
      7         -8.906264   1.000000
      8         -7.670347   1.000000
      9         -7.670347   1.000000
     10         -7.670347   1.000000
     11         -7.345633   1.000000
     12         -7.345633   1.000000
     13         -7.345633   1.000000
     14         -7.061640   1.000000
     15         -6.494938   1.000000
     16         -6.494938   1.000000
     17          7.120586   1.000000
     18          7.120586   1.000000
     19          7.120586   1.000000
     20          7.419357   1.000000
     21          7.960156   1.000000
     22          7.960156   1.000000
     23          7.960156   1.000000
     24          9.106215   1.000001
     25          9.789589  -0.000075
     26          9.903643  -0.000000
     27          9.903666  -0.000000
     28         10.016566  -0.000000
     29         10.023367  -0.000000
     30         10.028119  -0.000000
 
  0.2857143E+00  0.1428571E+00  0.1428571E+00  0.6997085E-01
      1        -25.103242   1.000000
      2        -24.697370   1.000000
      3        -24.601228   1.000000
      4        -24.601227   1.000000
      5         -8.796081   1.000000
      6         -8.796081   1.000000
      7         -8.710173   1.000000
      8         -7.891626   1.000000
      9         -7.891626   1.000000
     10         -7.496503   1.000000
     11         -7.440783   1.000000
     12         -7.309950   1.000000
     13         -7.309950   1.000000
     14         -7.223373   1.000000
     15         -6.635522   1.000000
     16         -6.571574   1.000000
     17          7.551882   1.000000
     18          7.551882   1.000000
     19          7.560083   1.000000
     20          7.930353   1.000000
     21          8.203292   1.000000
     22          8.736515   1.000000
     23          8.736515   1.000000
     24          9.075500   1.000000
     25          9.666449  -0.014142
     26          9.869538  -0.000000
     27          9.869549  -0.000000
     28          9.926535  -0.000000
     29          9.955455  -0.000000
     30          9.969025  -0.000000
 
  0.4285714E+00  0.1428571E+00  0.1428571E+00  0.6997085E-01
      1        -24.976203   1.000000
      2        -24.831464   1.000000
      3        -24.599961   1.000000
      4        -24.599961   1.000000
      5         -8.674842   1.000000
      6         -8.674842   1.000000
      7         -8.388825   1.000000
      8         -8.069475   1.000000
      9         -8.069475   1.000000
     10         -7.966950   1.000000
     11         -7.313730   1.000000
     12         -7.313730   1.000000
     13         -7.125566   1.000000
     14         -7.041590   1.000000
     15         -6.832019   1.000000
     16         -6.806069   1.000000
     17          8.056392   1.000000
     18          8.199085   1.000000
     19          8.199085   1.000000
     20          8.280321   1.000000
     21          8.624753   1.000000
     22          9.027195   1.000000
     23          9.316736   1.019005
     24          9.316736   1.019005
     25          9.527389   0.178841
     26          9.686657  -0.007748
     27          9.686657  -0.007748
     28          9.752150  -0.000538
     29          9.899112  -0.000000
     30          9.899113  -0.000000
 
  0.2857143E+00  0.2857143E+00  0.1428571E+00  0.6997085E-01
      1        -25.028425   1.000000
      2        -24.681003   1.000000
      3        -24.681003   1.000000
      4        -24.614289   1.000000
      5         -8.790564   1.000000
      6         -8.766827   1.000000
      7         -8.766827   1.000000
      8         -7.985626   1.000000
      9         -7.910334   1.000000
     10         -7.580739   1.000000
     11         -7.580739   1.000000
     12         -7.160090   1.000000
     13         -7.160090   1.000000
     14         -7.154952   1.000000
     15         -6.758793   1.000000
     16         -6.556468   1.000000
     17          7.696987   1.000000
     18          7.934573   1.000000
     19          7.934573   1.000000
     20          8.043784   1.000000
     21          8.857780   1.000000
     22          8.857780   1.000000
     23          9.360279   1.035330
     24          9.425481   0.920954
     25          9.615337  -0.034740
     26          9.712400  -0.003075
     27          9.712400  -0.003075
     28          9.788159  -0.000081
     29          9.949636  -0.000000
     30          9.982947  -0.000000
 
  0.4285714E+00  0.2857143E+00  0.1428571E+00  0.1399417E+00
      1        -24.918741   1.000000
      2        -24.794721   1.000000
      3        -24.658156   1.000000
      4        -24.634325   1.000000
      5         -8.809111   1.000000
      6         -8.809074   1.000000
      7         -8.606566   1.000000
      8         -8.308171   1.000000
      9         -7.924173   1.000000
     10         -7.760316   1.000000
     11         -7.254344   1.000000
     12         -7.102898   1.000000
     13         -7.087929   1.000000
     14         -6.978093   1.000000
     15         -6.926739   1.000000
     16         -6.686283   1.000000
     17          8.184409   1.000000
     18          8.250972   1.000000
     19          8.283571   1.000000
     20          8.525503   1.000000
     21          8.986913   1.000000
     22          9.072423   1.000000
     23          9.377379   1.031742
     24          9.382394   1.028219
     25          9.522804   0.208620
     26          9.572435  -0.005346
     27          9.713926  -0.002896
     28          9.829416  -0.000007
     29          9.958761  -0.000000
     30         10.000768  -0.000000
 
  0.4285714E+00  0.4285714E+00  0.1428571E+00  0.6997085E-01
      1        -24.835396   1.000000
      2        -24.742189   1.000000
      3        -24.742189   1.000000
      4        -24.684888   1.000000
      5         -8.861061   1.000000
      6         -8.787944   1.000000
      7         -8.787944   1.000000
      8         -8.609439   1.000000
      9         -7.713388   1.000000
     10         -7.473964   1.000000
     11         -7.473964   1.000000
     12         -7.207137   1.000000
     13         -6.911555   1.000000
     14         -6.856948   1.000000
     15         -6.856948   1.000000
     16         -6.695114   1.000000
     17          8.386907   1.000000
     18          8.397224   1.000000
     19          8.652535   1.000000
     20          8.652535   1.000000
     21          8.916720   1.000000
     22          8.916720   1.000000
     23          9.204876   1.000262
     24          9.206620   1.000287
     25          9.768420  -0.000237
     26          9.768420  -0.000237
     27          9.772375  -0.000193
     28          9.873876  -0.000000
     29          9.962584  -0.000000
     30          9.988838  -0.000000
 
  0.2857143E+00  0.2857143E+00  0.2857143E+00  0.2332362E-01
      1        -24.965567   1.000000
      2        -24.678830   1.000000
      3        -24.678830   1.000000
      4        -24.678830   1.000000
      5         -8.928254   1.000000
      6         -8.928254   1.000000
      7         -8.928254   1.000000
      8         -8.314271   1.000000
      9         -7.507520   1.000000
     10         -7.507520   1.000000
     11         -7.507520   1.000000
     12         -7.065734   1.000000
     13         -7.065734   1.000000
     14         -7.065734   1.000000
     15         -6.651625   1.000000
     16         -6.651625   1.000000
     17          7.770768   1.000000
     18          7.981582   1.000000
     19          7.981582   1.000000
     20          7.981582   1.000000
     21          9.194364   1.000150
     22          9.194364   1.000150
     23          9.194364   1.000150
     24          9.551749   0.054651
     25          9.700026  -0.004896
     26          9.700026  -0.004896
     27          9.700026  -0.004896
     28          9.839525  -0.000003
     29          9.986444  -0.000000
     30          9.993242  -0.000000
 
  0.4285714E+00  0.2857143E+00  0.2857143E+00  0.6997085E-01
      1        -24.874095   1.000000
      2        -24.771794   1.000000
      3        -24.677165   1.000000
      4        -24.677164   1.000000
      5         -9.038969   1.000000
      6         -9.038969   1.000000
      7         -8.886555   1.000000
      8         -8.668784   1.000000
      9         -7.461986   1.000000
     10         -7.461986   1.000000
     11         -7.061831   1.000000
     12         -6.996583   1.000000
     13         -6.996583   1.000000
     14         -6.934975   1.000000
     15         -6.787179   1.000000
     16         -6.751644   1.000000
     17          7.822323   1.000000
     18          8.042698   1.000000
     19          8.330044   1.000000
     20          8.330044   1.000000
     21          8.913031   1.000000
     22          8.913031   1.000000
     23          9.153966   1.000014
     24          9.410139   0.977778
     25          9.754015  -0.000491
     26          9.844689  -0.000002
     27          9.853697  -0.000001
     28          9.853700  -0.000001
     29          9.972257  -0.000000
     30          9.972969  -0.000000
 
  0.4285714E+00  0.4285714E+00  0.2857143E+00  0.6997085E-01
      1        -24.810103   1.000000
      2        -24.739756   1.000000
      3        -24.739756   1.000000
      4        -24.705882   1.000000
      5         -9.145895   1.000000
      6         -9.090361   1.000000
      7         -9.090361   1.000000
      8         -8.956973   1.000000
      9         -7.246817   1.000000
     10         -7.108937   1.000000
     11         -7.108937   1.000000
     12         -6.902529   1.000000
     13         -6.875942   1.000000
     14         -6.849643   1.000000
     15         -6.849643   1.000000
     16         -6.725978   1.000000
     17          7.743408   1.000000
     18          7.998392   1.000000
     19          7.998392   1.000000
     20          8.102204   1.000000
     21          9.007647   1.000000
     22          9.091764   1.000000
     23          9.091764   1.000000
     24          9.337037   1.028247
     25          9.893127  -0.000000
     26          9.893344  -0.000000
     27          9.918346  -0.000000
     28          9.944093  -0.000000
     29          9.963412  -0.000000
     30          9.969187  -0.000000
 
  0.4285714E+00  0.4285714E+00  0.4285714E+00  0.2332362E-01
      1        -24.774831   1.000000
      2        -24.737733   1.000000
      3        -24.737733   1.000000
      4        -24.737733   1.000000
      5         -9.269170   1.000000
      6         -9.269170   1.000000
      7         -9.269170   1.000000
      8         -9.200717   1.000000
      9         -6.896804   1.000000
     10         -6.896804   1.000000
     11         -6.896804   1.000000
     12         -6.825848   1.000000
     13         -6.825848   1.000000
     14         -6.825848   1.000000
     15         -6.772270   1.000000
     16         -6.772270   1.000000
     17          7.460579   1.000000
     18          7.613426   1.000000
     19          7.613426   1.000000
     20          7.613426   1.000000
     21          9.251169   1.002248
     22          9.251169   1.002248
     23          9.251169   1.002248
     24          9.389928   1.020154
     25          9.938955  -0.000000
     26          9.940512  -0.000000
     27          9.942481  -0.000000
     28          9.960303  -0.000000
     29          9.960448  -0.000000
     30          9.960557  -0.000000
