       N       E                     dE             d eps       ncg     rms          rms(c)
DAV:   1     0.526685184587E+03    0.52669E+03   -0.19172E+04  1200   0.202E+03
DAV:   2     0.458578528020E+02   -0.48083E+03   -0.47214E+03  1956   0.369E+02
DAV:   3    -0.213137531030E+02   -0.67172E+02   -0.66695E+02  1692   0.183E+02
DAV:   4    -0.255988833321E+02   -0.42851E+01   -0.40944E+01  2400   0.384E+01
DAV:   5    -0.260845173091E+02   -0.48563E+00   -0.44909E+00  2064   0.123E+01    0.194E+01
DAV:   6    -0.255077308479E+02    0.57679E+00   -0.53417E+01  1764   0.345E+01    0.118E+01
DAV:   7    -0.240369637815E+02    0.14708E+01   -0.38319E+01  2028   0.340E+01    0.887E+00
DAV:   8    -0.236686431536E+02    0.36832E+00   -0.54724E+00  2244   0.129E+01    0.156E+00
DAV:   9    -0.236980599902E+02   -0.29417E-01   -0.39917E-01  2280   0.322E+00    0.895E-01
DAV:  10    -0.237026205729E+02   -0.45606E-02   -0.54302E-02  2196   0.111E+00    0.101E+00
DAV:  11    -0.237085392585E+02   -0.59187E-02   -0.18598E-02  2232   0.835E-01    0.502E-01
DAV:  12    -0.237091787921E+02   -0.63953E-03   -0.48799E-03  2340   0.298E-01    0.506E-01
DAV:  13    -0.237088387924E+02    0.34000E-03   -0.18535E-03  2292   0.280E-01    0.398E-01
DAV:  14    -0.237087982624E+02    0.40530E-04   -0.37694E-04  2280   0.102E-01    0.327E-01
DAV:  15    -0.237088131526E+02   -0.14890E-04   -0.10589E-04  1596   0.704E-02    0.257E-01
DAV:  16    -0.237087906381E+02    0.22514E-04   -0.91765E-05  1896   0.651E-02    0.181E-01
DAV:  17    -0.237087585626E+02    0.32076E-04   -0.15131E-04  1932   0.911E-02    0.715E-02
DAV:  18    -0.237087559798E+02    0.25827E-05   -0.14849E-05  1068   0.397E-02
   1 F= -.23708756E+02 E0= -.23709903E+02  d E =0.343968E-02
