 vasp.6.3.0 20Jan22 (build Mar 25 2022 12:20:17) complex                        
  
 executed on             LinuxIFC date 2023.08.20  13:25:49
 running on   96 total cores
 distrk:  each k-point on   96 cores,    1 groups
 distr:  one band on NCORE=  16 cores,    6 groups


--------------------------------------------------------------------------------------------------------


 INCAR:
   ALGO = normal
   EDIFF = 1E-5
   KSPACING = 0.20000
   LASPH = .TRUE.
   ENCUT = 520
   ISIF = 2
   ISMEAR = 1
   LREAL = Auto
   LWAVE = False
   LCHARG = .FALSE.
   NELM = 400
   NSW = 0
   PREC = Accurate
   SIGMA = 0.1
   NPAR = 6

 POTCAR:    PAW_PBE Ce 23Dec2003                  
 POTCAR:    PAW_PBE Ce 23Dec2003                  
   SHA256 =  00bd3101dba980d69718c826e9aff48526de61f93249f80fb0d1cde9afca69b7 Ce/POTCAR             
   COPYR  = (c) Copyright 23Dec2003 Georg Kresse                                                    
   COPYR  = This file is part of the software VASP. Any use, copying, and all other rights are regul
   COPYR  = If you do not have a valid VASP license, you may not use, copy or distribute this file. 
   VRHFIN =Ce : [core= Kr 4d10]                                                                     
   LEXCH  = PE                                                                                      
   EATOM  =  1063.0861 eV,   78.1346 Ry                                                             
                                                                                                    
   TITEL  = PAW_PBE Ce 23Dec2003                                                                    
   LULTRA =        F    use ultrasoft PP ?                                                          
   IUNSCR =        1    unscreen: 0-lin 1-nonlin 2-no                                               
   RPACOR =    1.800    partial core radius                                                         
   POMASS =  140.115; ZVAL   =   12.000    mass and valenz                                          
   RCORE  =    2.700    outmost cutoff radius                                                       
   RWIGS  =    2.500; RWIGS  =    1.323    wigner-seitz radius (au A)                               
   ENMAX  =  273.042; ENMIN  =  204.781 eV                                                          
   RCLOC  =    1.810    cutoff for local pot                                                        
   LCOR   =        T    correct aug charges                                                         
   LPAW   =        T    paw PP                                                                      
   EAUG   =  580.196                                                                                
   DEXC   =    0.000                                                                                
   RMAX   =    2.749    core radius for proj-oper                                                   
   RAUG   =    1.300    factor for augmentation sphere                                              
   RDEP   =    2.810    radius for radial grids                                                     
   RDEPT  =    2.162    core radius for aug-charge                                                  
                                                                                                    
   Atomic configuration                                                                             
   14 entries                                                                                       
     n  l   j            E        occ.                                                              
     1  0  0.50    -40258.9816   2.0000                                                             
     2  0  0.50     -6445.4884   2.0000                                                             
     2  1  1.50     -5771.7470   6.0000                                                             
     3  0  0.50     -1387.9739   2.0000                                                             
     3  1  1.50     -1173.8158   6.0000                                                             
     3  2  2.50      -869.9108  10.0000                                                             
     4  0  0.50      -280.8706   2.0000                                                             
     4  1  1.50      -210.9815   6.0000                                                             
     4  2  2.50      -110.4558  10.0000                                                             
     5  0  0.50       -40.5819   2.0000                                                             
     6  0  0.50        -3.7444   2.0000                                                             
     5  1  1.50       -23.2188   6.0000                                                             
     5  2  2.50        -3.0598   1.0000                                                             
     4  3  2.50        -5.3970   1.0000                                                             
   Description                                                                                      
     l       E           TYP  RCUT    TYP  RCUT                                                     
     0    -40.5819164     23  1.500                                                                 
     0     -3.7443793     23  2.300                                                                 
     1    -23.2188445     23  2.000                                                                 
     1     40.8174780     23  2.300                                                                 
     2     -3.0597556     23  2.500                                                                 
     2     13.6058260     23  2.500                                                                 
     3     -5.3970469     23  2.700                                                                 
     3     -5.8505052     23  2.700                                                                 
  local pseudopotential read in
  partial core-charges read in
  partial kinetic energy density read in
  atomic valenz-charges read in
  non local Contribution for L=           0  read in
    real space projection operators read in
  non local Contribution for L=           0  read in
    real space projection operators read in
  non local Contribution for L=           1  read in
    real space projection operators read in
  non local Contribution for L=           1  read in
    real space projection operators read in
  non local Contribution for L=           2  read in
    real space projection operators read in
  non local Contribution for L=           2  read in
    real space projection operators read in
  non local Contribution for L=           3  read in
    real space projection operators read in
  non local Contribution for L=           3  read in
    real space projection operators read in
    PAW grid and wavefunctions read in
 
   number of l-projection  operators is LMAX  =           8
   number of lm-projection operators is LMMAX =          32
 
 -----------------------------------------------------------------------------
|                                                                             |
|               ----> ADVICE to this user running VASP <----                  |
|                                                                             |
|     You have a (more or less) 'small supercell' and for smaller cells       |
|     it is recommended to use the reciprocal-space projection scheme!        |
|     The real-space optimization is not efficient for small cells and it     |
|     is also less accurate ...                                               |
|     Therefore, set LREAL=.FALSE. in the INCAR file.                         |
|                                                                             |
 -----------------------------------------------------------------------------

 Optimization of the real space projectors (new method)

 maximal supplied QI-value         = 13.98
 optimisation between [QCUT,QGAM] = [ 11.61, 23.35] = [ 37.72,152.72] Ry 
 Optimized for a Real-space Cutoff    1.58 Angstroem

   l    n(q)    QCUT    max X(q) W(low)/X(q) W(high)/X(q)  e(spline) 
   0     11    11.607     8.553    0.18E-04    0.38E-05    0.11E-06
   0     11    11.607     8.106    0.25E-04    0.72E-05    0.23E-06
   1     11    11.607     4.160    0.64E-06    0.35E-05    0.82E-07
   1     11    11.607     3.597    0.15E-04    0.58E-05    0.16E-06
   2     10    11.607     8.183    0.53E-04    0.30E-03    0.10E-05
   2     10    11.607     6.077    0.37E-04    0.21E-03    0.69E-06
   3     10    11.607   116.013    0.17E-03    0.16E-04    0.46E-06
   3     10    11.607   108.937    0.17E-03    0.15E-04    0.47E-06
  PAW_PBE Ce 23Dec2003                  :
 energy of atom  1       EATOM=-1063.0861
 kinetic energy error for atom=    0.0133 (will be added to EATOM!!)
 
 
 POSCAR: Ce4
  positions in direct lattice
  velocities in cartesian coordinates
 exchange correlation table for  LEXCH =        8
   RHO(1)=    0.500       N(1)  =     2000
   RHO(2)=  100.500       N(2)  =     4000
 


--------------------------------------------------------------------------------------------------------


 ion  position               nearest neighbor table
   1  0.000  0.000  0.000-
   2  0.000  0.500  0.500-
   3  0.500  0.000  0.500-
   4  0.500  0.500  0.000-
 
  LATTYP: Found a simple cubic cell.
 ALAT       =     4.7207052112
  
  Lattice vectors:
  
 A1 = (   4.7207052112,   0.0000000000,   0.0000000000)
 A2 = (   0.0000000000,   4.7207052112,   0.0000000000)
 A3 = (   0.0000000000,   0.0000000000,   4.7207052112)


Analysis of symmetry for initial positions (statically):
=====================================================================
 Subroutine PRICEL returns following result:
 
  LATTYP: Found a face centered cubic cell.
 ALAT       =     4.7207052112
  
  Lattice vectors:
  
 A1 = (   2.3603526056,  -2.3603526056,   0.0000000000)
 A2 = (   2.3603526056,   0.0000000000,   2.3603526056)
 A3 = (   0.0000000000,  -2.3603526056,   2.3603526056)
 
   4 primitive cells build up your supercell.
 

 Routine SETGRP: Setting up the symmetry group for a 
 simple cubic supercell.


 Subroutine GETGRP returns: Found 48 space group operations
 (whereof 48 operations were pure point group operations)
 out of a pool of 48 trial point group operations.


The static configuration has the point symmetry O_h .


Analysis of symmetry for dynamics (positions and initial velocities):
=====================================================================
 Subroutine PRICEL returns following result:
 
  LATTYP: Found a face centered cubic cell.
 ALAT       =     4.7207052112
  
  Lattice vectors:
  
 A1 = (   2.3603526056,  -2.3603526056,   0.0000000000)
 A2 = (   2.3603526056,   0.0000000000,   2.3603526056)
 A3 = (   0.0000000000,  -2.3603526056,   2.3603526056)
 
   4 primitive cells build up your supercell.
 

 Routine SETGRP: Setting up the symmetry group for a 
 simple cubic supercell.


 Subroutine GETGRP returns: Found 48 space group operations
 (whereof 48 operations were pure point group operations)
 out of a pool of 48 trial point group operations.


The dynamic configuration has the point symmetry O_h .


 Subroutine INISYM returns: Found 48 space group operations
 (whereof 48 operations are pure point group operations),
 and found     4 'primitive' translations


----------------------------------------------------------------------------------------

                                     Primitive cell                                     

  volume of cell :      26.3003

  direct lattice vectors                    reciprocal lattice vectors
     2.360352606 -2.360352606  0.000000000     0.211832757 -0.211832757 -0.211832757
     2.360352606  0.000000000  2.360352606     0.211832757  0.211832757  0.211832757
     0.000000000 -2.360352606  2.360352606    -0.211832757 -0.211832757  0.211832757

  length of vectors
     3.338042667  3.338042667  3.338042667     0.366905098  0.366905098  0.366905098

  position of ions in fractional coordinates (direct lattice)
     0.000000000  0.000000000  0.000000000

  ion indices of the primitive-cell ions
   primitive index   ion index
                 1           1

----------------------------------------------------------------------------------------

 
 -----------------------------------------------------------------------------
|                                                                             |
|           W    W    AA    RRRRR   N    N  II  N    N   GGGG   !!!           |
|           W    W   A  A   R    R  NN   N  II  NN   N  G    G  !!!           |
|           W    W  A    A  R    R  N N  N  II  N N  N  G       !!!           |
|           W WW W  AAAAAA  RRRRR   N  N N  II  N  N N  G  GGG   !            |
|           WW  WW  A    A  R   R   N   NN  II  N   NN  G    G                |
|           W    W  A    A  R    R  N    N  II  N    N   GGGG   !!!           |
|                                                                             |
|     The requested file  could not be found or opened for reading            |
|     k-point information. Automatic k-point generation is used as a          |
|     fallback, which may lead to unwanted results.                           |
|                                                                             |
 -----------------------------------------------------------------------------

 

Automatic generation of k-mesh.
 Grid dimensions derived from KSPACING:
 generate k-points for:    7    7    7

 Generating k-lattice:

  Cartesian coordinates                     Fractional coordinates (reciprocal lattice)
     0.030261822  0.000000000  0.000000000     0.142857143  0.000000000  0.000000000
     0.000000000  0.030261822  0.000000000     0.000000000  0.142857143  0.000000000
     0.000000000  0.000000000  0.030261822     0.000000000  0.000000000  0.142857143

  Length of vectors
     0.030261822  0.030261822  0.030261822

  Shift w.r.t. Gamma in fractional coordinates (k-lattice)
     0.000000000  0.000000000  0.000000000

 
 Subroutine IBZKPT returns following result:
 ===========================================
 
 Found     20 irreducible k-points:
 
 Following reciprocal coordinates:
            Coordinates               Weight
  0.000000  0.000000  0.000000      1.000000
  0.142857  0.000000  0.000000      6.000000
  0.285714  0.000000  0.000000      6.000000
  0.428571  0.000000  0.000000      6.000000
  0.142857  0.142857  0.000000     12.000000
  0.285714  0.142857  0.000000     24.000000
  0.428571  0.142857  0.000000     24.000000
  0.285714  0.285714  0.000000     12.000000
  0.428571  0.285714  0.000000     24.000000
  0.428571  0.428571  0.000000     12.000000
  0.142857  0.142857  0.142857      8.000000
  0.285714  0.142857  0.142857     24.000000
  0.428571  0.142857  0.142857     24.000000
  0.285714  0.285714  0.142857     24.000000
  0.428571  0.285714  0.142857     48.000000
  0.428571  0.428571  0.142857     24.000000
  0.285714  0.285714  0.285714      8.000000
  0.428571  0.285714  0.285714     24.000000
  0.428571  0.428571  0.285714     24.000000
  0.428571  0.428571  0.428571      8.000000
 
 Following cartesian coordinates:
            Coordinates               Weight
  0.000000  0.000000  0.000000      1.000000
  0.030262  0.000000  0.000000      6.000000
  0.060524  0.000000  0.000000      6.000000
  0.090785  0.000000  0.000000      6.000000
  0.030262  0.030262  0.000000     12.000000
  0.060524  0.030262  0.000000     24.000000
  0.090785  0.030262  0.000000     24.000000
  0.060524  0.060524  0.000000     12.000000
  0.090785  0.060524  0.000000     24.000000
  0.090785  0.090785  0.000000     12.000000
  0.030262  0.030262  0.030262      8.000000
  0.060524  0.030262  0.030262     24.000000
  0.090785  0.030262  0.030262     24.000000
  0.060524  0.060524  0.030262     24.000000
  0.090785  0.060524  0.030262     48.000000
  0.090785  0.090785  0.030262     24.000000
  0.060524  0.060524  0.060524      8.000000
  0.090785  0.060524  0.060524     24.000000
  0.090785  0.090785  0.060524     24.000000
  0.090785  0.090785  0.090785      8.000000
 


--------------------------------------------------------------------------------------------------------




 Dimension of arrays:
   k-points           NKPTS =     20   k-points in BZ     NKDIM =     20   number of bands    NBANDS=     30
   number of dos      NEDOS =    301   number of ions     NIONS =      4
   non local maximal  LDIM  =      8   non local SUM 2l+1 LMDIM =     32
   total plane-waves  NPLWV =  46656
   max r-space proj   IRMAX =   7374   max aug-charges    IRDMAX=  23573
   dimension x,y,z NGX =    36 NGY =   36 NGZ =   36
   dimension x,y,z NGXF=    72 NGYF=   72 NGZF=   72
   support grid    NGXF=    72 NGYF=   72 NGZF=   72
   ions per type =               4
   NGX,Y,Z   is equivalent  to a cutoff of  12.68, 12.68, 12.68 a.u.
   NGXF,Y,Z  is equivalent  to a cutoff of  25.36, 25.36, 25.36 a.u.

 SYSTEM =  unknown system                          
 POSCAR =  Ce4                                     

 Startparameter for this run:
   NWRITE =      2    write-flag & timer
   PREC   = accura    normal or accurate (medium, high low for compatibility)
   ISTART =      0    job   : 0-new  1-cont  2-samecut
   ICHARG =      2    charge: 1-file 2-atom 10-const
   ISPIN  =      1    spin polarized calculation?
   LNONCOLLINEAR =      F non collinear calculations
   LSORBIT =      F    spin-orbit coupling
   INIWAV =      1    electr: 0-lowe 1-rand  2-diag
   LASPH  =      T    aspherical Exc in radial PAW
 Electronic Relaxation 1
   ENCUT  =  520.0 eV  38.22 Ry    6.18 a.u.   8.78  8.78  8.78*2*pi/ulx,y,z
   ENINI  =  520.0     initial cutoff
   ENAUG  =  580.2 eV  augmentation charge cutoff
   NELM   =    400;   NELMIN=  2; NELMDL= -5     # of ELM steps 
   EDIFF  = 0.1E-04   stopping-criterion for ELM
   LREAL  =      T    real-space projection
   NLSPLINE    = F    spline interpolate recip. space projectors
   LCOMPAT=      F    compatible to vasp.4.4
   GGA_COMPAT  = T    GGA compatible to vasp.4.4-vasp.4.6
   LMAXPAW     = -100 max onsite density
   LMAXMIX     =    2 max onsite mixed and CHGCAR
   VOSKOWN=      0    Vosko Wilk Nusair interpolation
   ROPT   =   -0.00025
 Ionic relaxation
   EDIFFG = 0.1E-03   stopping-criterion for IOM
   NSW    =      0    number of steps for IOM
   NBLOCK =      1;   KBLOCK =      1    inner block; outer block 
   IBRION =     -1    ionic relax: 0-MD 1-quasi-New 2-CG
   NFREE  =      0    steps in history (QN), initial steepest desc. (CG)
   ISIF   =      2    stress and relaxation
   IWAVPR =     10    prediction:  0-non 1-charg 2-wave 3-comb
   ISYM   =      2    0-nonsym 1-usesym 2-fastsym
   LCORR  =      T    Harris-Foulkes like correction to forces

   POTIM  = 0.5000    time-step for ionic-motion
   TEIN   =    0.0    initial temperature
   TEBEG  =    0.0;   TEEND  =   0.0 temperature during run
   SMASS  =  -3.00    Nose mass-parameter (am)
   estimated Nose-frequenzy (Omega)   =  0.10E-29 period in steps = 0.13E+47 mass=  -0.509E-27a.u.
   SCALEE = 1.0000    scale energy and forces
   NPACO  =    256;   APACO  = 10.0  distance and # of slots for P.C.
   PSTRESS=    0.0 pullay stress

  Mass of Ions in am
   POMASS = 140.12
  Ionic Valenz
   ZVAL   =  12.00
  Atomic Wigner-Seitz radii
   RWIGS  =  -1.00
  virtual crystal weights 
   VCA    =   1.00
   NELECT =      48.0000    total number of electrons
   NUPDOWN=      -1.0000    fix difference up-down

 DOS related values:
   EMIN   =  10.00;   EMAX   =-10.00  energy-range for DOS
   EFERMI =   0.00
   ISMEAR =     1;   SIGMA  =   0.10  broadening in eV -4-tet -1-fermi 0-gaus

 Electronic relaxation 2 (details)
   IALGO  =     38    algorithm
   LDIAG  =      T    sub-space diagonalisation (order eigenvalues)
   LSUBROT=      F    optimize rotation matrix (better conditioning)
   TURBO    =      0    0=normal 1=particle mesh
   IRESTART =      0    0=no restart 2=restart with 2 vectors
   NREBOOT  =      0    no. of reboots
   NMIN     =      0    reboot dimension
   EREF     =   0.00    reference energy to select bands
   IMIX   =      4    mixing-type and parameters
     AMIX     =   0.40;   BMIX     =  1.00
     AMIX_MAG =   1.60;   BMIX_MAG =  1.00
     AMIN     =   0.10
     WC   =   100.;   INIMIX=   1;  MIXPRE=   1;  MAXMIX= -45

 Intra band minimization:
   WEIMIN = 0.0000     energy-eigenvalue tresh-hold
   EBREAK =  0.83E-07  absolut break condition
   DEPER  =   0.30     relativ break condition  

   TIME   =   0.40     timestep for ELM

  volume/ion in A,a.u.               =      26.30       177.48
  Fermi-wavevector in a.u.,A,eV,Ry     =   1.260323  2.381664 21.611669  1.588413
  Thomas-Fermi vector in A             =   2.393838
 
 Write flags
   LWAVE        =      F    write WAVECAR
   LDOWNSAMPLE  =      F    k-point downsampling of WAVECAR
   LCHARG       =      F    write CHGCAR
   LVTOT        =      F    write LOCPOT, total local potential
   LVHAR        =      F    write LOCPOT, Hartree potential only
   LELF         =      F    write electronic localiz. function (ELF)
   LORBIT       =      0    0 simple, 1 ext, 2 COOP (PROOUT), +10 PAW based schemes


 Dipole corrections
   LMONO  =      F    monopole corrections only (constant potential shift)
   LDIPOL =      F    correct potential (dipole corrections)
   IDIPOL =      0    1-x, 2-y, 3-z, 4-all directions 
   EPSILON=  1.0000000 bulk dielectric constant

 Exchange correlation treatment:
   GGA     =    --    GGA type
   LEXCH   =     8    internal setting for exchange type
   LIBXC   =     F    Libxc                    
   VOSKOWN =     0    Vosko Wilk Nusair interpolation
   LHFCALC =     F    Hartree Fock is set to
   LHFONE  =     F    Hartree Fock one center treatment
   AEXX    =    0.0000 exact exchange contribution

 Linear response parameters
   LEPSILON=     F    determine dielectric tensor
   LRPA    =     F    only Hartree local field effects (RPA)
   LNABLA  =     F    use nabla operator in PAW spheres
   LVEL    =     F    velocity operator in full k-point grid
   CSHIFT  =0.1000    complex shift for real part using Kramers Kronig
   OMEGAMAX=  -1.0    maximum frequency
   DEG_THRESHOLD= 0.2000000E-02 threshold for treating states as degnerate
   RTIME   =   -0.100 relaxation time in fs
  (WPLASMAI=    0.000 imaginary part of plasma frequency in eV, 0.658/RTIME)
   DFIELD  = 0.0000000 0.0000000 0.0000000 field for delta impulse in time
 
  Optional k-point grid parameters
   LKPOINTS_OPT  =     F    use optional k-point grid
   KPOINTS_OPT_MODE=     1    mode for optional k-point grid
 
 Orbital magnetization related:
   ORBITALMAG=     F  switch on orbital magnetization
   LCHIMAG   =     F  perturbation theory with respect to B field
   DQ        =  0.001000  dq finite difference perturbation B field
   LLRAUG    =     F  two centre corrections for induced B field



--------------------------------------------------------------------------------------------------------


 Static calculation
 charge density and potential will be updated during run
 non-spin polarized calculation
 Variant of blocked Davidson
 Davidson routine will perform the subspace rotation
 perform sub-space diagonalisation
    after iterative eigenvector-optimisation
 modified Broyden-mixing scheme, WC =      100.0
 initial mixing is a Kerker type mixing with AMIX =  0.4000 and BMIX =      1.0000
 Hartree-type preconditioning will be used
 using additional bands            6
 real space projection scheme for non local part
 use partial core corrections
 calculate Harris-corrections to forces 
   (improved forces if not selfconsistent)
 use gradient corrections 
 use of overlap-Matrix (Vanderbilt PP)
 Methfessel and Paxton  Order N= 1 SIGMA  =   0.10


--------------------------------------------------------------------------------------------------------


  energy-cutoff  :      520.00
  volume of cell :      105.20
      direct lattice vectors                 reciprocal lattice vectors
     4.720705211  0.000000000  0.000000000     0.211832757  0.000000000  0.000000000
     0.000000000  4.720705211  0.000000000     0.000000000  0.211832757  0.000000000
     0.000000000  0.000000000  4.720705211     0.000000000  0.000000000  0.211832757

  length of vectors
     4.720705211  4.720705211  4.720705211     0.211832757  0.211832757  0.211832757


 
 k-points in units of 2pi/SCALE and weight: read from INCAR                         
   0.00000000  0.00000000  0.00000000       0.003
   0.03026182  0.00000000  0.00000000       0.017
   0.06052364  0.00000000  0.00000000       0.017
   0.09078547  0.00000000  0.00000000       0.017
   0.03026182  0.03026182  0.00000000       0.035
   0.06052364  0.03026182  0.00000000       0.070
   0.09078547  0.03026182  0.00000000       0.070
   0.06052364  0.06052364  0.00000000       0.035
   0.09078547  0.06052364  0.00000000       0.070
   0.09078547  0.09078547  0.00000000       0.035
   0.03026182  0.03026182  0.03026182       0.023
   0.06052364  0.03026182  0.03026182       0.070
   0.09078547  0.03026182  0.03026182       0.070
   0.06052364  0.06052364  0.03026182       0.070
   0.09078547  0.06052364  0.03026182       0.140
   0.09078547  0.09078547  0.03026182       0.070
   0.06052364  0.06052364  0.06052364       0.023
   0.09078547  0.06052364  0.06052364       0.070
   0.09078547  0.09078547  0.06052364       0.070
   0.09078547  0.09078547  0.09078547       0.023
 
 k-points in reciprocal lattice and weights: read from INCAR                         
   0.00000000  0.00000000  0.00000000       0.003
   0.14285714  0.00000000  0.00000000       0.017
   0.28571429  0.00000000  0.00000000       0.017
   0.42857143  0.00000000  0.00000000       0.017
   0.14285714  0.14285714  0.00000000       0.035
   0.28571429  0.14285714  0.00000000       0.070
   0.42857143  0.14285714  0.00000000       0.070
   0.28571429  0.28571429  0.00000000       0.035
   0.42857143  0.28571429  0.00000000       0.070
   0.42857143  0.42857143  0.00000000       0.035
   0.14285714  0.14285714  0.14285714       0.023
   0.28571429  0.14285714  0.14285714       0.070
   0.42857143  0.14285714  0.14285714       0.070
   0.28571429  0.28571429  0.14285714       0.070
   0.42857143  0.28571429  0.14285714       0.140
   0.42857143  0.42857143  0.14285714       0.070
   0.28571429  0.28571429  0.28571429       0.023
   0.42857143  0.28571429  0.28571429       0.070
   0.42857143  0.42857143  0.28571429       0.070
   0.42857143  0.42857143  0.42857143       0.023
 
 position of ions in fractional coordinates (direct lattice) 
   0.00000000  0.00000000  0.00000000
   0.00000000  0.50000000  0.50000000
   0.50000000  0.00000000  0.50000000
   0.50000000  0.50000000  0.00000000
 
 position of ions in cartesian coordinates  (Angst):
   0.00000000  0.00000000  0.00000000
   0.00000000  2.36035261  2.36035261
   2.36035261  0.00000000  2.36035261
   2.36035261  2.36035261  0.00000000
 


--------------------------------------------------------------------------------------------------------


 k-point   1 :   0.0000 0.0000 0.0000  plane waves:    2897
 k-point   2 :   0.1429 0.0000 0.0000  plane waves:    2857
 k-point   3 :   0.2857 0.0000 0.0000  plane waves:    2834
 k-point   4 :   0.4286 0.0000 0.0000  plane waves:    2830
 k-point   5 :   0.1429 0.1429 0.0000  plane waves:    2837
 k-point   6 :   0.2857 0.1429 0.0000  plane waves:    2829
 k-point   7 :   0.4286 0.1429 0.0000  plane waves:    2837
 k-point   8 :   0.2857 0.2857 0.0000  plane waves:    2836
 k-point   9 :   0.4286 0.2857 0.0000  plane waves:    2819
 k-point  10 :   0.4286 0.4286 0.0000  plane waves:    2826
 k-point  11 :   0.1429 0.1429 0.1429  plane waves:    2842
 k-point  12 :   0.2857 0.1429 0.1429  plane waves:    2820
 k-point  13 :   0.4286 0.1429 0.1429  plane waves:    2839
 k-point  14 :   0.2857 0.2857 0.1429  plane waves:    2832
 k-point  15 :   0.4286 0.2857 0.1429  plane waves:    2834
 k-point  16 :   0.4286 0.4286 0.1429  plane waves:    2832
 k-point  17 :   0.2857 0.2857 0.2857  plane waves:    2827
 k-point  18 :   0.4286 0.2857 0.2857  plane waves:    2844
 k-point  19 :   0.4286 0.4286 0.2857  plane waves:    2845
 k-point  20 :   0.4286 0.4286 0.4286  plane waves:    2848

 maximum and minimum number of plane-waves per node :       189      164

 maximum number of plane-waves:      2897
 maximum index in each direction: 
   IXMAX=    8   IYMAX=    8   IZMAX=    8
   IXMIN=   -9   IYMIN=   -9   IZMIN=   -9


 real space projection operators:
  total allocation   :       7123.00 KBytes
  max/ min on nodes  :        655.50        359.50


 parallel 3D FFT for wavefunctions:
    minimum data exchange during FFTs selected (reduces bandwidth)
 parallel 3D FFT for charge:
    minimum data exchange during FFTs selected (reduces bandwidth)


 total amount of memory used by VASP MPI-rank0    32404. kBytes
=======================================================================

   base      :      30000. kBytes
   nonlr-proj:       1284. kBytes
   fftplans  :        306. kBytes
   grid      :        410. kBytes
   one-center:         49. kBytes
   wavefun   :        355. kBytes
 
     INWAV:  cpu time      0.0000: real time      0.0000
 Broyden mixing: mesh for mixing (old mesh)
   NGX = 17   NGY = 17   NGZ = 17
  (NGX  = 72   NGY  = 72   NGZ  = 72)
  gives a total of   4913 points

 initial charge density was supplied:
 charge density of overlapping atoms calculated
 number of electron      48.0000000 magnetization 
 keeping initial charge density in first step


--------------------------------------------------------------------------------------------------------


 Maximum index for non-local projection operator          838
 Maximum index for augmentation-charges          973 (set IRDMAX)


--------------------------------------------------------------------------------------------------------


 First call to EWALD:  gamma=   0.375
 Maximum number of real-space cells 3x 3x 3
 Maximum number of reciprocal cells 3x 3x 3

    FEWALD:  cpu time      0.0023: real time      0.0023


--------------------------------------- Iteration      1(   1)  ---------------------------------------


    POTLOK:  cpu time      0.0145: real time      0.0195
    SETDIJ:  cpu time      0.2861: real time      0.2868
     EDDAV:  cpu time      0.2803: real time      0.3552
       DOS:  cpu time      0.0015: real time      0.0017
    --------------------------------------------
      LOOP:  cpu time      0.5825: real time      0.6632

 eigenvalue-minimisations  :  1200
 total energy-change (2. order) : 0.5266852E+03  (-0.1917188E+04)
 number of electron      48.0000000 magnetization 
 augmentation part       48.0000000 magnetization 

 Free energy of the ion-electron system (eV)
  ---------------------------------------------------
  alpha Z        PSCENC =       320.10101187
  Ewald energy   TEWEN  =     -4027.80057458
  -Hartree energ DENC   =      -470.60953460
  -exchange      EXHF   =         0.00000000
  -V(xc)+E(xc)   XCENC  =        24.34423300
  PAW double counting   =      3403.36026388    -3306.37754537
  entropy T*S    EENTRO =        -0.00227872
  eigenvalues    EBANDS =       331.37839172
  atomic energy  EATOM  =      4252.29121739
  Solvation  Ediel_sol  =         0.00000000
  ---------------------------------------------------
  free energy    TOTEN  =       526.68518459 eV

  energy without entropy =      526.68746331  energy(sigma->0) =      526.68594416


--------------------------------------------------------------------------------------------------------




--------------------------------------- Iteration      1(   2)  ---------------------------------------


     EDDAV:  cpu time      0.3263: real time      0.3396
       DOS:  cpu time      0.0005: real time      0.0005
    --------------------------------------------
      LOOP:  cpu time      0.3268: real time      0.3401

 eigenvalue-minimisations  :  1956
 total energy-change (2. order) :-0.4808273E+03  (-0.4721411E+03)
 number of electron      48.0000000 magnetization 
 augmentation part       48.0000000 magnetization 

 Free energy of the ion-electron system (eV)
  ---------------------------------------------------
  alpha Z        PSCENC =       320.10101187
  Ewald energy   TEWEN  =     -4027.80057458
  -Hartree energ DENC   =      -470.60953460
  -exchange      EXHF   =         0.00000000
  -V(xc)+E(xc)   XCENC  =        24.34423300
  PAW double counting   =      3403.36026388    -3306.37754537
  entropy T*S    EENTRO =         0.00372301
  eigenvalues    EBANDS =      -149.45494180
  atomic energy  EATOM  =      4252.29121739
  Solvation  Ediel_sol  =         0.00000000
  ---------------------------------------------------
  free energy    TOTEN  =        45.85785280 eV

  energy without entropy =       45.85412979  energy(sigma->0) =       45.85661180


--------------------------------------------------------------------------------------------------------




--------------------------------------- Iteration      1(   3)  ---------------------------------------


     EDDAV:  cpu time      0.2566: real time      0.2691
       DOS:  cpu time      0.0006: real time      0.0006
    --------------------------------------------
      LOOP:  cpu time      0.2571: real time      0.2697

 eigenvalue-minimisations  :  1692
 total energy-change (2. order) :-0.6717161E+02  (-0.6669476E+02)
 number of electron      48.0000000 magnetization 
 augmentation part       48.0000000 magnetization 

 Free energy of the ion-electron system (eV)
  ---------------------------------------------------
  alpha Z        PSCENC =       320.10101187
  Ewald energy   TEWEN  =     -4027.80057458
  -Hartree energ DENC   =      -470.60953460
  -exchange      EXHF   =         0.00000000
  -V(xc)+E(xc)   XCENC  =        24.34423300
  PAW double counting   =      3403.36026388    -3306.37754537
  entropy T*S    EENTRO =         0.00430000
  eigenvalues    EBANDS =      -216.62712469
  atomic energy  EATOM  =      4252.29121739
  Solvation  Ediel_sol  =         0.00000000
  ---------------------------------------------------
  free energy    TOTEN  =       -21.31375310 eV

  energy without entropy =      -21.31805310  energy(sigma->0) =      -21.31518644


--------------------------------------------------------------------------------------------------------




--------------------------------------- Iteration      1(   4)  ---------------------------------------


     EDDAV:  cpu time      0.3551: real time      0.3655
       DOS:  cpu time      0.0007: real time      0.0007
    --------------------------------------------
      LOOP:  cpu time      0.3558: real time      0.3661

 eigenvalue-minimisations  :  2400
 total energy-change (2. order) :-0.4285130E+01  (-0.4094403E+01)
 number of electron      48.0000000 magnetization 
 augmentation part       48.0000000 magnetization 

 Free energy of the ion-electron system (eV)
  ---------------------------------------------------
  alpha Z        PSCENC =       320.10101187
  Ewald energy   TEWEN  =     -4027.80057458
  -Hartree energ DENC   =      -470.60953460
  -exchange      EXHF   =         0.00000000
  -V(xc)+E(xc)   XCENC  =        24.34423300
  PAW double counting   =      3403.36026388    -3306.37754537
  entropy T*S    EENTRO =         0.00019273
  eigenvalues    EBANDS =      -220.90814766
  atomic energy  EATOM  =      4252.29121739
  Solvation  Ediel_sol  =         0.00000000
  ---------------------------------------------------
  free energy    TOTEN  =       -25.59888333 eV

  energy without entropy =      -25.59907606  energy(sigma->0) =      -25.59894758


--------------------------------------------------------------------------------------------------------




--------------------------------------- Iteration      1(   5)  ---------------------------------------


     EDDAV:  cpu time      0.2984: real time      0.3125
       DOS:  cpu time      0.0007: real time      0.0007
    CHARGE:  cpu time      0.0217: real time      0.0226
    MIXING:  cpu time      0.0025: real time      0.0032
    --------------------------------------------
      LOOP:  cpu time      0.3233: real time      0.3389

 eigenvalue-minimisations  :  2064
 total energy-change (2. order) :-0.4856340E+00  (-0.4490878E+00)
 number of electron      48.0000005 magnetization 
 augmentation part       -6.4692446 magnetization 

 Broyden mixing:
  rms(total) = 0.19445E+01    rms(broyden)= 0.19444E+01
  rms(prec ) = 0.29195E+01
  weight for this iteration     100.00

 Free energy of the ion-electron system (eV)
  ---------------------------------------------------
  alpha Z        PSCENC =       320.10101187
  Ewald energy   TEWEN  =     -4027.80057458
  -Hartree energ DENC   =      -470.60953460
  -exchange      EXHF   =         0.00000000
  -V(xc)+E(xc)   XCENC  =        24.34423300
  PAW double counting   =      3403.36026388    -3306.37754537
  entropy T*S    EENTRO =        -0.00331696
  eigenvalues    EBANDS =      -221.39027194
  atomic energy  EATOM  =      4252.29121739
  Solvation  Ediel_sol  =         0.00000000
  ---------------------------------------------------
  free energy    TOTEN  =       -26.08451731 eV

  energy without entropy =      -26.08120035  energy(sigma->0) =      -26.08341166


--------------------------------------------------------------------------------------------------------




--------------------------------------- Iteration      1(   6)  ---------------------------------------


    POTLOK:  cpu time      0.0069: real time      0.0207
    SETDIJ:  cpu time      0.2815: real time      0.2822
     EDDAV:  cpu time      0.3194: real time      0.3212
       DOS:  cpu time      0.0006: real time      0.0006
    CHARGE:  cpu time      0.0173: real time      0.0173
    MIXING:  cpu time      0.0011: real time      0.0036
    --------------------------------------------
      LOOP:  cpu time      0.6267: real time      0.6456

 eigenvalue-minimisations  :  1764
 total energy-change (2. order) : 0.5767865E+00  (-0.5341695E+01)
 number of electron      48.0000001 magnetization 
 augmentation part       -1.6876603 magnetization 

 Broyden mixing:
  rms(total) = 0.11751E+01    rms(broyden)= 0.11750E+01
  rms(prec ) = 0.25582E+01
  weight for this iteration     100.00

 eigenvalues of (default mixing * dielectric matrix)
  average eigenvalue GAMMA=   0.6497
  0.6497

 Free energy of the ion-electron system (eV)
  ---------------------------------------------------
  alpha Z        PSCENC =       320.10101187
  Ewald energy   TEWEN  =     -4027.80057458
  -Hartree energ DENC   =      -426.04891421
  -exchange      EXHF   =         0.00000000
  -V(xc)+E(xc)   XCENC  =        23.88949436
  PAW double counting   =      3532.25896146    -3433.06856103
  entropy T*S    EENTRO =        -0.00397583
  eigenvalues    EBANDS =      -267.12639026
  atomic energy  EATOM  =      4252.29121739
  Solvation  Ediel_sol  =         0.00000000
  ---------------------------------------------------
  free energy    TOTEN  =       -25.50773085 eV

  energy without entropy =      -25.50375502  energy(sigma->0) =      -25.50640557


--------------------------------------------------------------------------------------------------------




--------------------------------------- Iteration      1(   7)  ---------------------------------------


    POTLOK:  cpu time      0.0065: real time      0.0180
    SETDIJ:  cpu time      0.2810: real time      0.2817
     EDDAV:  cpu time      0.3332: real time      0.3340
       DOS:  cpu time      0.0008: real time      0.0008
    CHARGE:  cpu time      0.0173: real time      0.0174
    MIXING:  cpu time      0.0005: real time      0.0015
    --------------------------------------------
      LOOP:  cpu time      0.6394: real time      0.6533

 eigenvalue-minimisations  :  2028
 total energy-change (2. order) : 0.1470767E+01  (-0.3831856E+01)
 number of electron      48.0000004 magnetization 
 augmentation part       -5.6018646 magnetization 

 Broyden mixing:
  rms(total) = 0.88663E+00    rms(broyden)= 0.88660E+00
  rms(prec ) = 0.13575E+01
  weight for this iteration     100.00

 eigenvalues of (default mixing * dielectric matrix)
  average eigenvalue GAMMA=   1.3445
  2.2848  0.4041

 Free energy of the ion-electron system (eV)
  ---------------------------------------------------
  alpha Z        PSCENC =       320.10101187
  Ewald energy   TEWEN  =     -4027.80057458
  -Hartree energ DENC   =      -451.77226871
  -exchange      EXHF   =         0.00000000
  -V(xc)+E(xc)   XCENC  =        24.30965326
  PAW double counting   =      3623.89085108    -3530.37781280
  entropy T*S    EENTRO =        -0.00325058
  eigenvalues    EBANDS =      -234.67579070
  atomic energy  EATOM  =      4252.29121739
  Solvation  Ediel_sol  =         0.00000000
  ---------------------------------------------------
  free energy    TOTEN  =       -24.03696378 eV

  energy without entropy =      -24.03371320  energy(sigma->0) =      -24.03588026


--------------------------------------------------------------------------------------------------------




--------------------------------------- Iteration      1(   8)  ---------------------------------------


    POTLOK:  cpu time      0.0083: real time      0.0191
    SETDIJ:  cpu time      0.2802: real time      0.2819
     EDDAV:  cpu time      0.3246: real time      0.3253
       DOS:  cpu time      0.0006: real time      0.0006
    CHARGE:  cpu time      0.0158: real time      0.0158
    MIXING:  cpu time      0.0003: real time      0.0003
    --------------------------------------------
      LOOP:  cpu time      0.6297: real time      0.6430

 eigenvalue-minimisations  :  2244
 total energy-change (2. order) : 0.3683206E+00  (-0.5472408E+00)
 number of electron      48.0000003 magnetization 
 augmentation part       -4.7439582 magnetization 

 Broyden mixing:
  rms(total) = 0.15581E+00    rms(broyden)= 0.15577E+00
  rms(prec ) = 0.25760E+00
  weight for this iteration     100.00

 eigenvalues of (default mixing * dielectric matrix)
  average eigenvalue GAMMA=   1.2149
  0.3966  1.1317  2.1163

 Free energy of the ion-electron system (eV)
  ---------------------------------------------------
  alpha Z        PSCENC =       320.10101187
  Ewald energy   TEWEN  =     -4027.80057458
  -Hartree energ DENC   =      -436.75965857
  -exchange      EXHF   =         0.00000000
  -V(xc)+E(xc)   XCENC  =        24.31212576
  PAW double counting   =      3774.11646782    -3682.34958365
  entropy T*S    EENTRO =         0.00282548
  eigenvalues    EBANDS =      -247.58247467
  atomic energy  EATOM  =      4252.29121739
  Solvation  Ediel_sol  =         0.00000000
  ---------------------------------------------------
  free energy    TOTEN  =       -23.66864315 eV

  energy without entropy =      -23.67146864  energy(sigma->0) =      -23.66958498


--------------------------------------------------------------------------------------------------------




--------------------------------------- Iteration      1(   9)  ---------------------------------------


    POTLOK:  cpu time      0.0076: real time      0.0194
    SETDIJ:  cpu time      0.2807: real time      0.2814
     EDDAV:  cpu time      0.3262: real time      0.3281
       DOS:  cpu time      0.0006: real time      0.0006
    CHARGE:  cpu time      0.0170: real time      0.0171
    MIXING:  cpu time      0.0003: real time      0.0003
    --------------------------------------------
      LOOP:  cpu time      0.6325: real time      0.6469

 eigenvalue-minimisations  :  2280
 total energy-change (2. order) :-0.2941684E-01  (-0.3991690E-01)
 number of electron      48.0000004 magnetization 
 augmentation part       -4.9856536 magnetization 

 Broyden mixing:
  rms(total) = 0.89535E-01    rms(broyden)= 0.89530E-01
  rms(prec ) = 0.14477E+00
  weight for this iteration     100.00

 eigenvalues of (default mixing * dielectric matrix)
  average eigenvalue GAMMA=   0.9483
  2.0859  1.1861  0.3972  0.1241

 Free energy of the ion-electron system (eV)
  ---------------------------------------------------
  alpha Z        PSCENC =       320.10101187
  Ewald energy   TEWEN  =     -4027.80057458
  -Hartree energ DENC   =      -438.40184816
  -exchange      EXHF   =         0.00000000
  -V(xc)+E(xc)   XCENC  =        24.28071367
  PAW double counting   =      3782.30852294    -3689.96679627
  entropy T*S    EENTRO =         0.00335364
  eigenvalues    EBANDS =      -246.51366049
  atomic energy  EATOM  =      4252.29121739
  Solvation  Ediel_sol  =         0.00000000
  ---------------------------------------------------
  free energy    TOTEN  =       -23.69805999 eV

  energy without entropy =      -23.70141363  energy(sigma->0) =      -23.69917787


--------------------------------------------------------------------------------------------------------




--------------------------------------- Iteration      1(  10)  ---------------------------------------


    POTLOK:  cpu time      0.0103: real time      0.0192
    SETDIJ:  cpu time      0.2809: real time      0.2816
     EDDAV:  cpu time      0.3148: real time      0.3156
       DOS:  cpu time      0.0006: real time      0.0006
    CHARGE:  cpu time      0.0148: real time      0.0148
    MIXING:  cpu time      0.0003: real time      0.0003
    --------------------------------------------
      LOOP:  cpu time      0.6217: real time      0.6321

 eigenvalue-minimisations  :  2196
 total energy-change (2. order) :-0.4560583E-02  (-0.5430192E-02)
 number of electron      48.0000004 magnetization 
 augmentation part       -5.0443996 magnetization 

 Broyden mixing:
  rms(total) = 0.10100E+00    rms(broyden)= 0.10100E+00
  rms(prec ) = 0.16218E+00
  weight for this iteration     100.00

 eigenvalues of (default mixing * dielectric matrix)
  average eigenvalue GAMMA=   1.3122
  2.5625  2.1230  1.1787  0.3974  0.2991

 Free energy of the ion-electron system (eV)
  ---------------------------------------------------
  alpha Z        PSCENC =       320.10101187
  Ewald energy   TEWEN  =     -4027.80057458
  -Hartree energ DENC   =      -438.44374556
  -exchange      EXHF   =         0.00000000
  -V(xc)+E(xc)   XCENC  =        24.29057821
  PAW double counting   =      3779.72117216    -3687.46498705
  entropy T*S    EENTRO =         0.00336773
  eigenvalues    EBANDS =      -246.40066075
  atomic energy  EATOM  =      4252.29121739
  Solvation  Ediel_sol  =         0.00000000
  ---------------------------------------------------
  free energy    TOTEN  =       -23.70262057 eV

  energy without entropy =      -23.70598831  energy(sigma->0) =      -23.70374315


--------------------------------------------------------------------------------------------------------




--------------------------------------- Iteration      1(  11)  ---------------------------------------


    POTLOK:  cpu time      0.0057: real time      0.0182
    SETDIJ:  cpu time      0.2794: real time      0.2811
     EDDAV:  cpu time      0.3189: real time      0.3197
       DOS:  cpu time      0.0006: real time      0.0006
    CHARGE:  cpu time      0.0152: real time      0.0152
    MIXING:  cpu time      0.0003: real time      0.0003
    --------------------------------------------
      LOOP:  cpu time      0.6200: real time      0.6351

 eigenvalue-minimisations  :  2232
 total energy-change (2. order) :-0.5918686E-02  (-0.1859800E-02)
 number of electron      48.0000004 magnetization 
 augmentation part       -5.1096080 magnetization 

 Broyden mixing:
  rms(total) = 0.50173E-01    rms(broyden)= 0.50173E-01
  rms(prec ) = 0.80849E-01
  weight for this iteration     100.00

 eigenvalues of (default mixing * dielectric matrix)
  average eigenvalue GAMMA=   1.2321
  2.6380  1.9700  1.1506  0.9571  0.3971  0.2796

 Free energy of the ion-electron system (eV)
  ---------------------------------------------------
  alpha Z        PSCENC =       320.10101187
  Ewald energy   TEWEN  =     -4027.80057458
  -Hartree energ DENC   =      -439.46954012
  -exchange      EXHF   =         0.00000000
  -V(xc)+E(xc)   XCENC  =        24.16939290
  PAW double counting   =      3831.29945946    -3737.77613755
  entropy T*S    EENTRO =         0.00335604
  eigenvalues    EBANDS =      -246.52672467
  atomic energy  EATOM  =      4252.29121739
  Solvation  Ediel_sol  =         0.00000000
  ---------------------------------------------------
  free energy    TOTEN  =       -23.70853926 eV

  energy without entropy =      -23.71189530  energy(sigma->0) =      -23.70965794


--------------------------------------------------------------------------------------------------------




--------------------------------------- Iteration      1(  12)  ---------------------------------------


    POTLOK:  cpu time      0.0059: real time      0.0166
    SETDIJ:  cpu time      0.2805: real time      0.2812
     EDDAV:  cpu time      0.3327: real time      0.3348
       DOS:  cpu time      0.0006: real time      0.0006
    CHARGE:  cpu time      0.0148: real time      0.0148
    MIXING:  cpu time      0.0005: real time      0.0009
    --------------------------------------------
      LOOP:  cpu time      0.6351: real time      0.6490

 eigenvalue-minimisations  :  2340
 total energy-change (2. order) :-0.6395336E-03  (-0.4879880E-03)
 number of electron      48.0000004 magnetization 
 augmentation part       -5.1259337 magnetization 

 Broyden mixing:
  rms(total) = 0.50618E-01    rms(broyden)= 0.50618E-01
  rms(prec ) = 0.83926E-01
  weight for this iteration     100.00

 eigenvalues of (default mixing * dielectric matrix)
  average eigenvalue GAMMA=   1.3563
  2.5613  2.1081  2.1081  1.0794  0.9406  0.3968  0.2998

 Free energy of the ion-electron system (eV)
  ---------------------------------------------------
  alpha Z        PSCENC =       320.10101187
  Ewald energy   TEWEN  =     -4027.80057458
  -Hartree energ DENC   =      -439.47462081
  -exchange      EXHF   =         0.00000000
  -V(xc)+E(xc)   XCENC  =        24.15969461
  PAW double counting   =      3834.01128089    -3740.42850427
  entropy T*S    EENTRO =         0.00335644
  eigenvalues    EBANDS =      -246.57204033
  atomic energy  EATOM  =      4252.29121739
  Solvation  Ediel_sol  =         0.00000000
  ---------------------------------------------------
  free energy    TOTEN  =       -23.70917879 eV

  energy without entropy =      -23.71253524  energy(sigma->0) =      -23.71029761


--------------------------------------------------------------------------------------------------------




--------------------------------------- Iteration      1(  13)  ---------------------------------------


    POTLOK:  cpu time      0.0067: real time      0.0170
    SETDIJ:  cpu time      0.2803: real time      0.2810
     EDDAV:  cpu time      0.3330: real time      0.3339
       DOS:  cpu time      0.0007: real time      0.0007
    CHARGE:  cpu time      0.0165: real time      0.0165
    MIXING:  cpu time      0.0004: real time      0.0004
    --------------------------------------------
      LOOP:  cpu time      0.6376: real time      0.6495

 eigenvalue-minimisations  :  2292
 total energy-change (2. order) : 0.3399998E-03  (-0.1853512E-03)
 number of electron      48.0000004 magnetization 
 augmentation part       -5.1455574 magnetization 

 Broyden mixing:
  rms(total) = 0.39836E-01    rms(broyden)= 0.39835E-01
  rms(prec ) = 0.63073E-01
  weight for this iteration     100.00

 eigenvalues of (default mixing * dielectric matrix)
  average eigenvalue GAMMA=   1.3278
  2.4265  2.4265  2.4345  1.0400  0.9846  0.3970  0.2957  0.6176

 Free energy of the ion-electron system (eV)
  ---------------------------------------------------
  alpha Z        PSCENC =       320.10101187
  Ewald energy   TEWEN  =     -4027.80057458
  -Hartree energ DENC   =      -439.68944563
  -exchange      EXHF   =         0.00000000
  -V(xc)+E(xc)   XCENC  =        24.14205187
  PAW double counting   =      3832.35256434    -3738.61896355
  entropy T*S    EENTRO =         0.00340019
  eigenvalues    EBANDS =      -246.49010069
  atomic energy  EATOM  =      4252.29121739
  Solvation  Ediel_sol  =         0.00000000
  ---------------------------------------------------
  free energy    TOTEN  =       -23.70883879 eV

  energy without entropy =      -23.71223899  energy(sigma->0) =      -23.70997219


--------------------------------------------------------------------------------------------------------




--------------------------------------- Iteration      1(  14)  ---------------------------------------


    POTLOK:  cpu time      0.0070: real time      0.0195
    SETDIJ:  cpu time      0.2808: real time      0.2825
     EDDAV:  cpu time      0.3382: real time      0.3391
       DOS:  cpu time      0.0007: real time      0.0007
    CHARGE:  cpu time      0.0158: real time      0.0158
    MIXING:  cpu time      0.0004: real time      0.0004
    --------------------------------------------
      LOOP:  cpu time      0.6430: real time      0.6581

 eigenvalue-minimisations  :  2280
 total energy-change (2. order) : 0.4053002E-04  (-0.3769386E-04)
 number of electron      48.0000004 magnetization 
 augmentation part       -5.1529932 magnetization 

 Broyden mixing:
  rms(total) = 0.32661E-01    rms(broyden)= 0.32661E-01
  rms(prec ) = 0.51816E-01
  weight for this iteration     100.00

 eigenvalues of (default mixing * dielectric matrix)
  average eigenvalue GAMMA=   1.2697
  2.4184  2.4184  2.3405  1.0892  0.9597  0.7532  0.7532  0.3969  0.2978

 Free energy of the ion-electron system (eV)
  ---------------------------------------------------
  alpha Z        PSCENC =       320.10101187
  Ewald energy   TEWEN  =     -4027.80057458
  -Hartree energ DENC   =      -439.83010865
  -exchange      EXHF   =         0.00000000
  -V(xc)+E(xc)   XCENC  =        24.12107050
  PAW double counting   =      3832.15140108    -3738.21811177
  entropy T*S    EENTRO =         0.00341176
  eigenvalues    EBANDS =      -246.52811587
  atomic energy  EATOM  =      4252.29121739
  Solvation  Ediel_sol  =         0.00000000
  ---------------------------------------------------
  free energy    TOTEN  =       -23.70879826 eV

  energy without entropy =      -23.71221003  energy(sigma->0) =      -23.70993552


--------------------------------------------------------------------------------------------------------




--------------------------------------- Iteration      1(  15)  ---------------------------------------


    POTLOK:  cpu time      0.0094: real time      0.0190
    SETDIJ:  cpu time      0.2810: real time      0.2817
     EDDAV:  cpu time      0.2431: real time      0.2436
       DOS:  cpu time      0.0005: real time      0.0005
    CHARGE:  cpu time      0.0148: real time      0.0149
    MIXING:  cpu time      0.0003: real time      0.0003
    --------------------------------------------
      LOOP:  cpu time      0.5491: real time      0.5600

 eigenvalue-minimisations  :  1596
 total energy-change (2. order) :-0.1489024E-04  (-0.1058920E-04)
 number of electron      48.0000004 magnetization 
 augmentation part       -5.1545304 magnetization 

 Broyden mixing:
  rms(total) = 0.25745E-01    rms(broyden)= 0.25745E-01
  rms(prec ) = 0.41683E-01
  weight for this iteration     100.00

 eigenvalues of (default mixing * dielectric matrix)
  average eigenvalue GAMMA=   1.3528
  2.7598  2.2364  2.2364  1.5935  1.1312  1.1312  0.9697  0.3969  0.2972  0.7759

 Free energy of the ion-electron system (eV)
  ---------------------------------------------------
  alpha Z        PSCENC =       320.10101187
  Ewald energy   TEWEN  =     -4027.80057458
  -Hartree energ DENC   =      -439.96274956
  -exchange      EXHF   =         0.00000000
  -V(xc)+E(xc)   XCENC  =        24.09968129
  PAW double counting   =      3832.01798755    -3737.87023963
  entropy T*S    EENTRO =         0.00341449
  eigenvalues    EBANDS =      -246.58856196
  atomic energy  EATOM  =      4252.29121739
  Solvation  Ediel_sol  =         0.00000000
  ---------------------------------------------------
  free energy    TOTEN  =       -23.70881315 eV

  energy without entropy =      -23.71222764  energy(sigma->0) =      -23.70995131


--------------------------------------------------------------------------------------------------------




--------------------------------------- Iteration      1(  16)  ---------------------------------------


    POTLOK:  cpu time      0.0057: real time      0.0186
    SETDIJ:  cpu time      0.2796: real time      0.2816
     EDDAV:  cpu time      0.2794: real time      0.2800
       DOS:  cpu time      0.0006: real time      0.0006
    CHARGE:  cpu time      0.0148: real time      0.0148
    MIXING:  cpu time      0.0004: real time      0.0004
    --------------------------------------------
      LOOP:  cpu time      0.5805: real time      0.5961

 eigenvalue-minimisations  :  1896
 total energy-change (2. order) : 0.2251446E-04  (-0.9176480E-05)
 number of electron      48.0000004 magnetization 
 augmentation part       -5.1594487 magnetization 

 Broyden mixing:
  rms(total) = 0.18111E-01    rms(broyden)= 0.18111E-01
  rms(prec ) = 0.29664E-01
  weight for this iteration     100.00

 eigenvalues of (default mixing * dielectric matrix)
  average eigenvalue GAMMA=   1.4362
  2.9311  2.9311  2.5632  1.5985  1.5985  1.0284  1.0284  0.8525  0.3969  0.2972
  0.5722

 Free energy of the ion-electron system (eV)
  ---------------------------------------------------
  alpha Z        PSCENC =       320.10101187
  Ewald energy   TEWEN  =     -4027.80057458
  -Hartree energ DENC   =      -440.09876704
  -exchange      EXHF   =         0.00000000
  -V(xc)+E(xc)   XCENC  =        24.08082343
  PAW double counting   =      3831.53250059    -3737.20080445
  entropy T*S    EENTRO =         0.00342234
  eigenvalues    EBANDS =      -246.61762017
  atomic energy  EATOM  =      4252.29121739
  Solvation  Ediel_sol  =         0.00000000
  ---------------------------------------------------
  free energy    TOTEN  =       -23.70879064 eV

  energy without entropy =      -23.71221297  energy(sigma->0) =      -23.70993142


--------------------------------------------------------------------------------------------------------




--------------------------------------- Iteration      1(  17)  ---------------------------------------


    POTLOK:  cpu time      0.0061: real time      0.0185
    SETDIJ:  cpu time      0.2807: real time      0.2815
     EDDAV:  cpu time      0.2893: real time      0.2912
       DOS:  cpu time      0.0006: real time      0.0006
    CHARGE:  cpu time      0.0148: real time      0.0148
    MIXING:  cpu time      0.0004: real time      0.0004
    --------------------------------------------
      LOOP:  cpu time      0.5919: real time      0.6070

 eigenvalue-minimisations  :  1932
 total energy-change (2. order) : 0.3207556E-04  (-0.1513132E-04)
 number of electron      48.0000004 magnetization 
 augmentation part       -5.1660948 magnetization 

 Broyden mixing:
  rms(total) = 0.71505E-02    rms(broyden)= 0.71504E-02
  rms(prec ) = 0.11881E-01
  weight for this iteration     100.00

 eigenvalues of (default mixing * dielectric matrix)
  average eigenvalue GAMMA=   1.4395
  2.8871  2.8871  2.5889  1.8625  1.8625  0.3969  0.2972  1.0344  1.0344  0.8020
  0.8020  0.8193

 Free energy of the ion-electron system (eV)
  ---------------------------------------------------
  alpha Z        PSCENC =       320.10101187
  Ewald energy   TEWEN  =     -4027.80057458
  -Hartree energ DENC   =      -440.30623480
  -exchange      EXHF   =         0.00000000
  -V(xc)+E(xc)   XCENC  =        24.05520520
  PAW double counting   =      3830.43702276    -3735.84842264
  entropy T*S    EENTRO =         0.00343539
  eigenvalues    EBANDS =      -246.64141914
  atomic energy  EATOM  =      4252.29121739
  Solvation  Ediel_sol  =         0.00000000
  ---------------------------------------------------
  free energy    TOTEN  =       -23.70875856 eV

  energy without entropy =      -23.71219395  energy(sigma->0) =      -23.70990369


--------------------------------------------------------------------------------------------------------




--------------------------------------- Iteration      1(  18)  ---------------------------------------


    POTLOK:  cpu time      0.0186: real time      0.0187
    SETDIJ:  cpu time      0.2811: real time      0.2817
     EDDAV:  cpu time      0.1852: real time      0.1857
       DOS:  cpu time      0.0006: real time      0.0006
    --------------------------------------------
      LOOP:  cpu time      0.4855: real time      0.4867

 eigenvalue-minimisations  :  1068
 total energy-change (2. order) : 0.2582732E-05  (-0.1484852E-05)
 number of electron      48.0000004 magnetization 
 augmentation part       -5.1660948 magnetization 

 Free energy of the ion-electron system (eV)
  ---------------------------------------------------
  alpha Z        PSCENC =       320.10101187
  Ewald energy   TEWEN  =     -4027.80057458
  -Hartree energ DENC   =      -440.37970174
  -exchange      EXHF   =         0.00000000
  -V(xc)+E(xc)   XCENC  =        24.04668689
  PAW double counting   =      3830.20553192    -3735.52942916
  entropy T*S    EENTRO =         0.00343968
  eigenvalues    EBANDS =      -246.64693824
  atomic energy  EATOM  =      4252.29121739
  Solvation  Ediel_sol  =         0.00000000
  ---------------------------------------------------
  free energy    TOTEN  =       -23.70875598 eV

  energy without entropy =      -23.71219566  energy(sigma->0) =      -23.70990254


--------------------------------------------------------------------------------------------------------




 average (electrostatic) potential at core
  the test charge radii are     1.1513
  (the norm of the test charge is              1.0000)
       1 -74.3835       2 -74.3835       3 -74.3835       4 -74.3835
 
 
 
 E-fermi :   9.4857     XC(G=0): -11.3208     alpha+bet :-19.1492

 Fermi energy:         9.4856911236

 k-point     1 :       0.0000    0.0000    0.0000
  band No.  band energies     occupation 
      1     -25.2852      2.00000
      2     -24.5681      2.00000
      3     -24.5681      2.00000
      4     -24.5681      2.00000
      5      -9.1072      2.00000
      6      -9.1072      2.00000
      7      -9.1072      2.00000
      8      -7.4642      2.00000
      9      -7.4642      2.00000
     10      -7.4642      2.00000
     11      -7.4642      2.00000
     12      -7.4642      2.00000
     13      -7.4642      2.00000
     14      -6.4228      2.00000
     15      -6.4228      2.00000
     16      -6.4228      2.00000
     17       6.6027      2.00000
     18       6.6027      2.00000
     19       6.6027      2.00000
     20       6.6269      2.00000
     21       7.2591      2.00000
     22       7.2591      2.00000
     23       7.2591      2.00000
     24       9.2671      2.00840
     25       9.8690     -0.00000
     26       9.8690     -0.00000
     27       9.8690     -0.00000
     28      10.0108     -0.00000
     29      10.0108     -0.00000
     30      10.0109     -0.00000

 k-point     2 :       0.1429    0.0000    0.0000
  band No.  band energies     occupation 
      1     -25.2520      2.00000
      2     -24.6061      2.00000
      3     -24.5674      2.00000
      4     -24.5674      2.00000
      5      -9.0389      2.00000
      6      -9.0389      2.00000
      7      -8.9971      2.00000
      8      -7.5629      2.00000
      9      -7.5629      2.00000
     10      -7.4848      2.00000
     11      -7.4848      2.00000
     12      -7.4174      2.00000
     13      -7.4174      2.00000
     14      -6.5917      2.00000
     15      -6.4800      2.00000
     16      -6.4800      2.00000
     17       6.7844      2.00000
     18       6.8401      2.00000
     19       6.8401      2.00000
     20       6.9398      2.00000
     21       7.3474      2.00000
     22       7.5264      2.00000
     23       7.5264      2.00000
     24       9.1725      2.00009
     25       9.8211     -0.00002
     26       9.8901     -0.00000
     27       9.8901     -0.00000
     28      10.0021     -0.00000
     29      10.0028     -0.00000
     30      10.0390     -0.00000

 k-point     3 :       0.2857    0.0000    0.0000
  band No.  band energies     occupation 
      1     -25.1577      2.00000
      2     -24.7115      2.00000
      3     -24.5660      2.00000
      4     -24.5660      2.00000
      5      -8.8420      2.00000
      6      -8.8420      2.00000
      7      -8.6802      2.00000
      8      -7.8272      2.00000
      9      -7.8272      2.00000
     10      -7.5305      2.00000
     11      -7.5305      2.00000
     12      -7.2843      2.00000
     13      -7.2843      2.00000
     14      -7.0351      2.00000
     15      -6.6368      2.00000
     16      -6.6368      2.00000
     17       7.2898      2.00000
     18       7.4689      2.00000
     19       7.4689      2.00000
     20       7.6032      2.00000
     21       7.7315      2.00000
     22       8.2601      2.00000
     23       8.2601      2.00000
     24       8.8881      2.00000
     25       9.6876     -0.01505
     26       9.9455     -0.00000
     27       9.9461     -0.00000
     28       9.9493     -0.00000
     29       9.9533     -0.00000
     30       9.9568     -0.00000

 k-point     4 :       0.4286    0.0000    0.0000
  band No.  band energies     occupation 
      1     -25.0186      2.00000
      2     -24.8596      2.00000
      3     -24.5649      2.00000
      4     -24.5649      2.00000
      5      -8.5411      2.00000
      6      -8.5411      2.00000
      7      -8.1969      2.00000
      8      -8.1808      2.00000
      9      -8.1808      2.00000
     10      -7.6150      2.00000
     11      -7.5667      2.00000
     12      -7.5667      2.00000
     13      -7.0853      2.00000
     14      -7.0853      2.00000
     15      -6.8546      2.00000
     16      -6.8546      2.00000
     17       7.9633      2.00000
     18       7.9952      2.00000
     19       8.1598      2.00000
     20       8.1598      2.00000
     21       8.3433      2.00000
     22       8.4587      2.00000
     23       9.1841      2.00017
     24       9.1841      2.00017
     25       9.7062     -0.00781
     26       9.7492     -0.00124
     27       9.7492     -0.00124
     28       9.7578     -0.00081
     29       9.7578     -0.00081
     30      10.0325     -0.00000

 k-point     5 :       0.1429    0.1429    0.0000
  band No.  band energies     occupation 
      1     -25.2200      2.00000
      2     -24.6035      2.00000
      3     -24.6035      2.00000
      4     -24.5686      2.00000
      5      -8.9714      2.00000
      6      -8.9477      2.00000
      7      -8.9477      2.00000
      8      -7.7545      2.00000
      9      -7.5146      2.00000
     10      -7.5146      2.00000
     11      -7.4263      2.00000
     12      -7.4263      2.00000
     13      -7.3886      2.00000
     14      -6.8289      2.00000
     15      -6.5399      2.00000
     16      -6.4438      2.00000
     17       6.9554      2.00000
     18       7.0192      2.00000
     19       7.0192      2.00000
     20       7.2141      2.00000
     21       7.6070      2.00000
     22       7.6070      2.00000
     23       7.8799      2.00000
     24       9.1114      2.00000
     25       9.8027     -0.00007
     26       9.8826     -0.00000
     27       9.9120     -0.00000
     28      10.0043     -0.00000
     29      10.0225     -0.00000
     30      10.0417     -0.00000

 k-point     6 :       0.2857    0.1429    0.0000
  band No.  band energies     occupation 
      1     -25.1297      2.00000
      2     -24.7035      2.00000
      3     -24.5968      2.00000
      4     -24.5725      2.00000
      5      -8.8063      2.00000
      6      -8.7766      2.00000
      7      -8.6843      2.00000
      8      -8.0337      2.00000
      9      -7.7748      2.00000
     10      -7.4391      2.00000
     11      -7.3767      2.00000
     12      -7.3606      2.00000
     13      -7.2681      2.00000
     14      -7.2618      2.00000
     15      -6.7036      2.00000
     16      -6.5450      2.00000
     17       7.4034      2.00000
     18       7.5173      2.00000
     19       7.6374      2.00000
     20       7.8382      2.00000
     21       7.9226      2.00000
     22       8.3166      2.00000
     23       8.6928      2.00000
     24       8.9113      2.00000
     25       9.6702     -0.02554
     26       9.8750     -0.00000
     27       9.9411     -0.00000
     28       9.9576     -0.00000
     29       9.9738     -0.00000
     30       9.9872     -0.00000

 k-point     7 :       0.4286    0.1429    0.0000
  band No.  band energies     occupation 
      1     -24.9967      2.00000
      2     -24.8447      2.00000
      3     -24.5877      2.00000
      4     -24.5791      2.00000
      5      -8.5905      2.00000
      6      -8.4792      2.00000
      7      -8.3241      2.00000
      8      -8.2788      2.00000
      9      -8.1234      2.00000
     10      -7.7824      2.00000
     11      -7.4299      2.00000
     12      -7.3929      2.00000
     13      -7.1704      2.00000
     14      -7.0234      2.00000
     15      -6.9306      2.00000
     16      -6.7622      2.00000
     17       8.0750      2.00000
     18       8.1792      2.00000
     19       8.1843      2.00000
     20       8.2680      2.00000
     21       8.5302      2.00000
     22       8.5757      2.00000
     23       9.2034      2.00049
     24       9.4716      1.23548
     25       9.5878     -0.05437
     26       9.6236     -0.06499
     27       9.7561     -0.00089
     28       9.7673     -0.00050
     29       9.8617     -0.00000
     30       9.8836     -0.00000

 k-point     8 :       0.2857    0.2857    0.0000
  band No.  band energies     occupation 
      1     -25.0506      2.00000
      2     -24.6820      2.00000
      3     -24.6820      2.00000
      4     -24.5913      2.00000
      5      -8.6820      2.00000
      6      -8.6820      2.00000
      7      -8.5882      2.00000
      8      -8.3098      2.00000
      9      -7.6819      2.00000
     10      -7.6249      2.00000
     11      -7.6249      2.00000
     12      -7.2039      2.00000
     13      -7.2039      2.00000
     14      -7.1866      2.00000
     15      -6.8857      2.00000
     16      -6.5222      2.00000
     17       7.5711      2.00000
     18       8.1036      2.00000
     19       8.1036      2.00000
     20       8.4240      2.00000
     21       8.4711      2.00000
     22       8.4711      2.00000
     23       8.9295      2.00000
     24       9.4705      1.25369
     25       9.5870     -0.05287
     26       9.7429     -0.00167
     27       9.7429     -0.00167
     28       9.9328     -0.00000
     29       9.9734     -0.00000
     30      10.0223     -0.00000

 k-point     9 :       0.4286    0.2857    0.0000
  band No.  band energies     occupation 
      1     -24.9347      2.00000
      2     -24.8029      2.00000
      3     -24.6516      2.00000
      4     -24.6191      2.00000
      5      -8.6385      2.00000
      6      -8.5191      2.00000
      7      -8.4453      2.00000
      8      -8.3011      2.00000
      9      -8.0994      2.00000
     10      -7.9588      2.00000
     11      -7.3997      2.00000
     12      -7.1405      2.00000
     13      -7.1365      2.00000
     14      -7.1187      2.00000
     15      -6.9124      2.00000
     16      -6.6586      2.00000
     17       8.0773      2.00000
     18       8.5321      2.00000
     19       8.6765      2.00000
     20       8.7180      2.00000
     21       8.8542      2.00000
     22       8.9785      2.00000
     23       9.2440      2.00334
     24       9.3599      2.07058
     25       9.5232      0.41199
     26       9.5398      0.21601
     27       9.7587     -0.00078
     28       9.7833     -0.00021
     29       9.9675     -0.00000
     30      10.0105     -0.00000

 k-point    10 :       0.4286    0.4286    0.0000
  band No.  band energies     occupation 
      1     -24.8445      2.00000
      2     -24.7433      2.00000
      3     -24.7433      2.00000
      4     -24.6776      2.00000
      5      -8.6127      2.00000
      6      -8.5797      2.00000
      7      -8.5797      2.00000
      8      -8.3907      2.00000
      9      -8.0308      2.00000
     10      -7.7103      2.00000
     11      -7.7103      2.00000
     12      -7.4177      2.00000
     13      -6.9245      2.00000
     14      -6.8595      2.00000
     15      -6.8595      2.00000
     16      -6.6843      2.00000
     17       8.3460      2.00000
     18       8.8052      2.00000
     19       8.8052      2.00000
     20       9.0340      2.00000
     21       9.1226      2.00000
     22       9.2474      2.00384
     23       9.2474      2.00384
     24       9.4574      1.45789
     25       9.5341      0.27754
     26       9.5341      0.27754
     27       9.6364     -0.05469
     28       9.7626     -0.00064
     29       9.9649     -0.00000
     30      10.0012     -0.00000

 k-point    11 :       0.1429    0.1429    0.1429
  band No.  band energies     occupation 
      1     -25.1897      2.00000
      2     -24.6028      2.00000
      3     -24.6028      2.00000
      4     -24.6028      2.00000
      5      -8.9063      2.00000
      6      -8.9063      2.00000
      7      -8.9063      2.00000
      8      -7.6703      2.00000
      9      -7.6703      2.00000
     10      -7.6703      2.00000
     11      -7.3456      2.00000
     12      -7.3456      2.00000
     13      -7.3456      2.00000
     14      -7.0616      2.00000
     15      -6.4949      2.00000
     16      -6.4949      2.00000
     17       7.1206      2.00000
     18       7.1206      2.00000
     19       7.1206      2.00000
     20       7.4194      2.00000
     21       7.9602      2.00000
     22       7.9602      2.00000
     23       7.9602      2.00000
     24       9.1062      2.00000
     25       9.7896     -0.00015
     26       9.9036     -0.00000
     27       9.9037     -0.00000
     28      10.0166     -0.00000
     29      10.0234     -0.00000
     30      10.0281     -0.00000

 k-point    12 :       0.2857    0.1429    0.1429
  band No.  band energies     occupation 
      1     -25.1032      2.00000
      2     -24.6974      2.00000
      3     -24.6012      2.00000
      4     -24.6012      2.00000
      5      -8.7961      2.00000
      6      -8.7961      2.00000
      7      -8.7102      2.00000
      8      -7.8916      2.00000
      9      -7.8916      2.00000
     10      -7.4965      2.00000
     11      -7.4408      2.00000
     12      -7.3099      2.00000
     13      -7.3099      2.00000
     14      -7.2234      2.00000
     15      -6.6355      2.00000
     16      -6.5716      2.00000
     17       7.5519      2.00000
     18       7.5519      2.00000
     19       7.5601      2.00000
     20       7.9304      2.00000
     21       8.2033      2.00000
     22       8.7365      2.00000
     23       8.7365      2.00000
     24       9.0755      2.00000
     25       9.6664     -0.02828
     26       9.8695     -0.00000
     27       9.8695     -0.00000
     28       9.9265     -0.00000
     29       9.9555     -0.00000
     30       9.9690     -0.00000

 k-point    13 :       0.4286    0.1429    0.1429
  band No.  band energies     occupation 
      1     -24.9762      2.00000
      2     -24.8315      2.00000
      3     -24.6000      2.00000
      4     -24.6000      2.00000
      5      -8.6748      2.00000
      6      -8.6748      2.00000
      7      -8.3888      2.00000
      8      -8.0695      2.00000
      9      -8.0695      2.00000
     10      -7.9670      2.00000
     11      -7.3137      2.00000
     12      -7.3137      2.00000
     13      -7.1256      2.00000
     14      -7.0416      2.00000
     15      -6.8320      2.00000
     16      -6.8061      2.00000
     17       8.0564      2.00000
     18       8.1991      2.00000
     19       8.1991      2.00000
     20       8.2803      2.00000
     21       8.6248      2.00000
     22       9.0272      2.00000
     23       9.3167      2.03801
     24       9.3167      2.03801
     25       9.5274      0.35768
     26       9.6867     -0.01550
     27       9.6867     -0.01550
     28       9.7521     -0.00108
     29       9.8991     -0.00000
     30       9.8991     -0.00000

 k-point    14 :       0.2857    0.2857    0.1429
  band No.  band energies     occupation 
      1     -25.0284      2.00000
      2     -24.6810      2.00000
      3     -24.6810      2.00000
      4     -24.6143      2.00000
      5      -8.7906      2.00000
      6      -8.7668      2.00000
      7      -8.7668      2.00000
      8      -7.9856      2.00000
      9      -7.9103      2.00000
     10      -7.5807      2.00000
     11      -7.5807      2.00000
     12      -7.1601      2.00000
     13      -7.1601      2.00000
     14      -7.1550      2.00000
     15      -6.7588      2.00000
     16      -6.5565      2.00000
     17       7.6970      2.00000
     18       7.9346      2.00000
     19       7.9346      2.00000
     20       8.0438      2.00000
     21       8.8578      2.00000
     22       8.8578      2.00000
     23       9.3603      2.07066
     24       9.4255      1.84191
     25       9.6153     -0.06948
     26       9.7124     -0.00615
     27       9.7124     -0.00615
     28       9.7882     -0.00016
     29       9.9496     -0.00000
     30       9.9829     -0.00000

 k-point    15 :       0.4286    0.2857    0.1429
  band No.  band energies     occupation 
      1     -24.9187      2.00000
      2     -24.7947      2.00000
      3     -24.6582      2.00000
      4     -24.6343      2.00000
      5      -8.8091      2.00000
      6      -8.8091      2.00000
      7      -8.6066      2.00000
      8      -8.3082      2.00000
      9      -7.9242      2.00000
     10      -7.7603      2.00000
     11      -7.2543      2.00000
     12      -7.1029      2.00000
     13      -7.0879      2.00000
     14      -6.9781      2.00000
     15      -6.9267      2.00000
     16      -6.6863      2.00000
     17       8.1844      2.00000
     18       8.2510      2.00000
     19       8.2836      2.00000
     20       8.5255      2.00000
     21       8.9869      2.00000
     22       9.0724      2.00000
     23       9.3774      2.06348
     24       9.3824      2.05644
     25       9.5228      0.41724
     26       9.5724     -0.01069
     27       9.7139     -0.00579
     28       9.8294     -0.00001
     29       9.9588     -0.00000
     30      10.0008     -0.00000

 k-point    16 :       0.4286    0.4286    0.1429
  band No.  band energies     occupation 
      1     -24.8354      2.00000
      2     -24.7422      2.00000
      3     -24.7422      2.00000
      4     -24.6849      2.00000
      5      -8.8611      2.00000
      6      -8.7879      2.00000
      7      -8.7879      2.00000
      8      -8.6094      2.00000
      9      -7.7134      2.00000
     10      -7.4740      2.00000
     11      -7.4740      2.00000
     12      -7.2071      2.00000
     13      -6.9116      2.00000
     14      -6.8569      2.00000
     15      -6.8569      2.00000
     16      -6.6951      2.00000
     17       8.3869      2.00000
     18       8.3972      2.00000
     19       8.6525      2.00000
     20       8.6525      2.00000
     21       8.9167      2.00000
     22       8.9167      2.00000
     23       9.2049      2.00052
     24       9.2066      2.00057
     25       9.7684     -0.00047
     26       9.7684     -0.00047
     27       9.7724     -0.00039
     28       9.8739     -0.00000
     29       9.9626     -0.00000
     30       9.9888     -0.00000

 k-point    17 :       0.2857    0.2857    0.2857
  band No.  band energies     occupation 
      1     -24.9656      2.00000
      2     -24.6788      2.00000
      3     -24.6788      2.00000
      4     -24.6788      2.00000
      5      -8.9283      2.00000
      6      -8.9283      2.00000
      7      -8.9283      2.00000
      8      -8.3143      2.00000
      9      -7.5075      2.00000
     10      -7.5075      2.00000
     11      -7.5075      2.00000
     12      -7.0657      2.00000
     13      -7.0657      2.00000
     14      -7.0657      2.00000
     15      -6.6516      2.00000
     16      -6.6516      2.00000
     17       7.7708      2.00000
     18       7.9816      2.00000
     19       7.9816      2.00000
     20       7.9816      2.00000
     21       9.1944      2.00030
     22       9.1944      2.00030
     23       9.1944      2.00030
     24       9.5517      0.10930
     25       9.7000     -0.00979
     26       9.7000     -0.00979
     27       9.7000     -0.00979
     28       9.8395     -0.00001
     29       9.9864     -0.00000
     30       9.9932     -0.00000

 k-point    18 :       0.4286    0.2857    0.2857
  band No.  band energies     occupation 
      1     -24.8741      2.00000
      2     -24.7718      2.00000
      3     -24.6772      2.00000
      4     -24.6772      2.00000
      5      -9.0390      2.00000
      6      -9.0390      2.00000
      7      -8.8866      2.00000
      8      -8.6688      2.00000
      9      -7.4620      2.00000
     10      -7.4620      2.00000
     11      -7.0618      2.00000
     12      -6.9966      2.00000
     13      -6.9966      2.00000
     14      -6.9350      2.00000
     15      -6.7872      2.00000
     16      -6.7516      2.00000
     17       7.8223      2.00000
     18       8.0427      2.00000
     19       8.3300      2.00000
     20       8.3300      2.00000
     21       8.9130      2.00000
     22       8.9130      2.00000
     23       9.1540      2.00003
     24       9.4101      1.95556
     25       9.7540     -0.00098
     26       9.8447     -0.00000
     27       9.8537     -0.00000
     28       9.8537     -0.00000
     29       9.9723     -0.00000
     30       9.9730     -0.00000

 k-point    19 :       0.4286    0.4286    0.2857
  band No.  band energies     occupation 
      1     -24.8101      2.00000
      2     -24.7398      2.00000
      3     -24.7398      2.00000
      4     -24.7059      2.00000
      5      -9.1459      2.00000
      6      -9.0904      2.00000
      7      -9.0904      2.00000
      8      -8.9570      2.00000
      9      -7.2468      2.00000
     10      -7.1089      2.00000
     11      -7.1089      2.00000
     12      -6.9025      2.00000
     13      -6.8759      2.00000
     14      -6.8496      2.00000
     15      -6.8496      2.00000
     16      -6.7260      2.00000
     17       7.7434      2.00000
     18       7.9984      2.00000
     19       7.9984      2.00000
     20       8.1022      2.00000
     21       9.0076      2.00000
     22       9.0918      2.00000
     23       9.0918      2.00000
     24       9.3370      2.05649
     25       9.8931     -0.00000
     26       9.8933     -0.00000
     27       9.9183     -0.00000
     28       9.9441     -0.00000
     29       9.9634     -0.00000
     30       9.9692     -0.00000

 k-point    20 :       0.4286    0.4286    0.4286
  band No.  band energies     occupation 
      1     -24.7748      2.00000
      2     -24.7377      2.00000
      3     -24.7377      2.00000
      4     -24.7377      2.00000
      5      -9.2692      2.00000
      6      -9.2692      2.00000
      7      -9.2692      2.00000
      8      -9.2007      2.00000
      9      -6.8968      2.00000
     10      -6.8968      2.00000
     11      -6.8968      2.00000
     12      -6.8258      2.00000
     13      -6.8258      2.00000
     14      -6.8258      2.00000
     15      -6.7723      2.00000
     16      -6.7723      2.00000
     17       7.4606      2.00000
     18       7.6134      2.00000
     19       7.6134      2.00000
     20       7.6134      2.00000
     21       9.2512      2.00450
     22       9.2512      2.00450
     23       9.2512      2.00450
     24       9.3899      2.04031
     25       9.9390     -0.00000
     26       9.9405     -0.00000
     27       9.9425     -0.00000
     28       9.9603     -0.00000
     29       9.9604     -0.00000
     30       9.9606     -0.00000


--------------------------------------------------------------------------------------------------------


 soft charge-density along one line, spin component           1
         0         1         2         3         4         5         6         7         8         9
 total charge-density along one line
 
 pseudopotential strength for first ion, spin component:           1
 22.771 -16.706   0.000   0.000   0.000   0.000  -0.000  -0.000
-16.706   8.253  -0.000  -0.000  -0.000   0.000   0.000   0.000
  0.000  -0.000  11.442   0.000   0.000  -5.791  -0.000   0.000
  0.000  -0.000   0.000  11.442  -0.000  -0.000  -5.791   0.000
  0.000  -0.000   0.000  -0.000  11.442   0.000   0.000  -5.791
  0.000   0.000  -5.791  -0.000   0.000  14.282  -0.000  -0.000
 -0.000   0.000  -0.000  -5.791   0.000  -0.000  14.282   0.000
 -0.000   0.000   0.000   0.000  -5.791  -0.000   0.000  14.282
  0.000  -0.000  -0.000  -0.000   0.000  -0.000   0.000   0.000
  0.000  -0.000   0.000   0.000  -0.000   0.000   0.000   0.000
 -0.000   0.000  -0.000   0.000  -0.000  -0.000   0.000   0.000
 -0.000   0.000  -0.000  -0.000   0.000   0.000  -0.000   0.000
 -0.000   0.000  -0.000   0.000   0.000  -0.000   0.000  -0.000
 -0.000   0.000  -0.000   0.000  -0.000   0.000  -0.000  -0.000
 -0.000   0.000  -0.000  -0.000   0.000  -0.000  -0.000  -0.000
  0.000  -0.000   0.000  -0.000   0.000   0.000  -0.000  -0.000
  0.000  -0.000   0.000  -0.000  -0.000  -0.000   0.000  -0.000
 -0.000  -0.000   0.000  -0.000  -0.000   0.000  -0.000   0.000
 -0.000   0.000   0.000   0.000   0.000  -0.001  -0.000   0.000
 -0.000   0.000   0.000  -0.000  -0.000  -0.000   0.000   0.000
  0.000  -0.000   0.000  -0.000   0.000  -0.001   0.000  -0.000
  0.000  -0.000   0.000  -0.000  -0.000  -0.000   0.001   0.000
  0.000   0.000   0.000   0.000   0.000  -0.000  -0.000  -0.001
 -0.000   0.000   0.000  -0.000   0.000  -0.000   0.000  -0.000
 -0.000   0.000   0.000   0.000  -0.000  -0.000  -0.000   0.001
 -0.000   0.000   0.000   0.000   0.000  -0.001  -0.000   0.000
 -0.000   0.000   0.000  -0.000  -0.000  -0.000   0.000   0.000
  0.000  -0.000   0.000  -0.000   0.000  -0.001   0.000  -0.000
  0.000  -0.000   0.000  -0.000  -0.000  -0.000   0.001   0.000
 -0.000  -0.000   0.000   0.000   0.000  -0.000  -0.000  -0.001
 -0.000   0.000   0.000  -0.000   0.000  -0.000   0.000  -0.000
 -0.000   0.000   0.000   0.000  -0.000  -0.000  -0.000   0.001
 total augmentation occupancy for first ion, spin component:           1
  1.959  -0.096  -0.000   0.000   0.000  -0.000   0.000   0.000   0.000  -0.000   0.000  -0.000  -0.000   0.000  -0.000   0.000
 -0.096   1.170  -0.000   0.000   0.000   0.000   0.000   0.000   0.000   0.000  -0.000   0.000   0.000   0.000  -0.000   0.000
 -0.000  -0.000   1.967  -0.000  -0.000  -0.002   0.000   0.000  -0.000  -0.000   0.000  -0.000  -0.000   0.000   0.000   0.000
  0.000   0.000   0.000   1.967   0.000  -0.000  -0.002  -0.000   0.000   0.000   0.000   0.000  -0.000   0.000  -0.000   0.000
  0.000   0.000   0.000  -0.000   1.967  -0.000   0.000  -0.002   0.000  -0.000   0.000   0.000  -0.000  -0.000   0.000  -0.000
 -0.000   0.000  -0.002  -0.000  -0.000   0.004  -0.000  -0.000   0.000   0.000  -0.000   0.000  -0.000  -0.000   0.000  -0.000
  0.000   0.000   0.000  -0.002   0.000  -0.000   0.004  -0.000  -0.000  -0.000  -0.000   0.000   0.000  -0.000  -0.000   0.000
  0.000   0.000   0.000  -0.000  -0.002  -0.000  -0.000   0.004  -0.000  -0.000   0.000   0.000   0.000  -0.000   0.000  -0.000
 -0.000   0.000  -0.000   0.000   0.000   0.000  -0.000  -0.000   0.663   0.000  -0.000   0.000  -0.000   0.079  -0.000  -0.000
 -0.000  -0.000  -0.000   0.000  -0.000   0.000  -0.000  -0.000   0.000   0.663   0.000   0.000   0.000  -0.000   0.079   0.000
 -0.000  -0.000   0.000   0.000  -0.000  -0.000  -0.000   0.000  -0.000   0.000   0.570   0.000  -0.000  -0.000  -0.000   0.070
 -0.000  -0.000  -0.000   0.000   0.000   0.000   0.000   0.000   0.000   0.000   0.000   0.663  -0.000  -0.000  -0.000  -0.000
  0.000  -0.000   0.000   0.000  -0.000   0.000   0.000   0.000  -0.000   0.000   0.000  -0.000   0.570   0.000   0.000   0.000
 -0.000   0.000   0.000   0.000  -0.000  -0.000  -0.000  -0.000   0.079  -0.000  -0.000  -0.000   0.000   0.010   0.000   0.000
  0.000  -0.000   0.000  -0.000   0.000   0.000  -0.000   0.000   0.000   0.079  -0.000  -0.000   0.000  -0.000   0.010   0.000
 -0.000  -0.000  -0.000   0.000   0.000   0.000   0.000  -0.000  -0.000   0.000   0.070   0.000  -0.000   0.000   0.000   0.009
 -0.000   0.000  -0.000  -0.000   0.000   0.000  -0.000   0.000   0.000  -0.000   0.000   0.079  -0.000  -0.000  -0.000   0.000
  0.000   0.000  -0.000  -0.000   0.000   0.000   0.000   0.000   0.000  -0.000   0.000   0.000   0.070   0.000  -0.000   0.000
 -0.000  -0.000  -0.051  -0.000   0.000   0.005  -0.000   0.000  -0.000  -0.000   0.000   0.000   0.000   0.000  -0.000   0.000
 -0.000   0.000  -0.000  -0.000  -0.000  -0.000  -0.000  -0.000   0.000   0.000  -0.000   0.000   0.000   0.000  -0.000   0.000
 -0.000   0.000  -0.039  -0.000  -0.000   0.004  -0.000   0.000  -0.000  -0.000  -0.000   0.000   0.000   0.000   0.000  -0.000
 -0.000   0.000  -0.000   0.064  -0.000  -0.000  -0.007   0.000   0.000  -0.000   0.000   0.000   0.000   0.000  -0.000   0.000
  0.000  -0.000  -0.000   0.000  -0.039  -0.000  -0.000   0.004   0.000  -0.000   0.000   0.000  -0.000   0.000   0.000   0.000
  0.000  -0.000   0.000  -0.000   0.000  -0.000   0.000   0.000   0.000  -0.000   0.000  -0.000   0.000   0.000  -0.000   0.000
  0.000  -0.000  -0.000   0.000   0.051  -0.000  -0.000  -0.005   0.000   0.000   0.000   0.000   0.000  -0.000   0.000   0.000
 -0.000  -0.000   0.056  -0.000   0.000  -0.007   0.000  -0.000   0.000  -0.000   0.000   0.000   0.000   0.000  -0.000   0.000
  0.000  -0.000   0.000   0.000   0.000  -0.000  -0.000   0.000  -0.000  -0.000   0.000  -0.000  -0.000   0.000   0.000   0.000
  0.000   0.000   0.043   0.000  -0.000  -0.005  -0.000   0.000   0.000  -0.000  -0.000  -0.000   0.000  -0.000   0.000   0.000
 -0.000  -0.000   0.000  -0.071   0.000  -0.000   0.008   0.000   0.000  -0.000  -0.000   0.000  -0.000  -0.000   0.000   0.000
 -0.000   0.000   0.000   0.000   0.043  -0.000  -0.000  -0.005  -0.000   0.000  -0.000  -0.000  -0.000   0.000  -0.000  -0.000
 -0.000   0.000  -0.000   0.000   0.000   0.000  -0.000  -0.000   0.000  -0.000  -0.000  -0.000   0.000  -0.000   0.000  -0.000
 -0.000   0.000   0.000   0.000  -0.056  -0.000   0.000   0.007   0.000   0.000  -0.000   0.000   0.000   0.000  -0.000  -0.000


------------------------ aborting loop because EDIFF is reached ----------------------------------------


    CHARGE:  cpu time      0.0151: real time      0.0152
    FORLOC:  cpu time      0.0004: real time      0.0004
    FORNL :  cpu time      0.0449: real time      0.0450
    STRESS:  cpu time      0.1312: real time      0.1324
    FORCOR:  cpu time      0.0054: real time      0.0054
    FORHAR:  cpu time      0.0020: real time      0.0024
    MIXING:  cpu time      0.0004: real time      0.0004
    OFIELD:  cpu time      0.0002: real time      0.0004

  FORCE on cell =-STRESS in cart. coord.  units (eV):
  Direction    XX          YY          ZZ          XY          YZ          ZX
  --------------------------------------------------------------------------------------
  Alpha Z   320.10101   320.10101   320.10101
  Ewald   -1342.60078 -1342.60078 -1342.60078    -0.00000     0.00000     0.00000
  Hartree   146.87103   146.87103   146.87103    -0.00000    -0.00000    -0.00000
  E(xc)    -218.03331  -218.03331  -218.03331    -0.00000    -0.00000    -0.00000
  Local      76.00419    76.00419    76.00419    -0.00000     0.00000    -0.00000
  n-local   250.69160   254.13093   262.21253     2.96624     2.08586     1.70406
  augment   -87.93006   -87.93006   -87.93006    -0.00000     0.00000    -0.00000
  Kinetic   857.37812   850.48011   841.97798    -2.43613    -3.56006    -2.00379
  Fock        0.00000     0.00000     0.00000     0.00000     0.00000     0.00000
  -------------------------------------------------------------------------------------
  Total       0.03584     0.03584     0.03584    -0.00000    -0.00000     0.00000
  in kB       0.54577     0.54577     0.54577    -0.00000    -0.00000     0.00000
  external pressure =        0.55 kB  Pullay stress =        0.00 kB


 VOLUME and BASIS-vectors are now :
 -----------------------------------------------------------------------------
  energy-cutoff  :      520.00
  volume of cell :      105.20
      direct lattice vectors                 reciprocal lattice vectors
     4.720705211  0.000000000  0.000000000     0.211832757  0.000000000  0.000000000
     0.000000000  4.720705211  0.000000000     0.000000000  0.211832757  0.000000000
     0.000000000  0.000000000  4.720705211     0.000000000  0.000000000  0.211832757

  length of vectors
     4.720705211  4.720705211  4.720705211     0.211832757  0.211832757  0.211832757


 FORCES acting on ions
    electron-ion (+dipol)            ewald-force                    non-local-force                 convergence-correction
 -----------------------------------------------------------------------------------------------
   0.541E-14 0.725E-14 0.467E-14   0.703E-14 -.276E-14 -.302E-14   -.101E-21 0.153E-21 -.179E-22   -.284E-13 -.275E-14 -.316E-13
   0.519E-14 0.491E-13 0.460E-13   0.586E-14 0.278E-16 0.370E-14   0.683E-22 -.883E-22 -.139E-21   -.303E-13 -.299E-14 -.196E-14
   0.389E-13 0.784E-14 0.357E-11   -.572E-14 0.228E-15 0.390E-14   0.113E-21 -.360E-21 -.320E-21   0.948E-13 0.537E-14 -.351E-14
   0.379E-13 0.159E-11 0.118E-11   -.689E-14 0.302E-14 -.509E-14   0.247E-21 0.755E-22 0.120E-21   0.988E-13 0.549E-14 -.350E-13
 -----------------------------------------------------------------------------------------------
   0.873E-13 0.166E-11 0.480E-11   0.270E-15 0.512E-15 -.519E-15   0.328E-21 -.220E-21 -.356E-21   0.135E-12 0.512E-14 -.721E-13
 
 
 POSITION                                       TOTAL-FORCE (eV/Angst)
 -----------------------------------------------------------------------------------
      0.00000      0.00000      0.00000         0.000000      0.000000      0.000000
      0.00000      2.36035      2.36035         0.000000      0.000000     -0.000000
      2.36035      0.00000      2.36035        -0.000000     -0.000000     -0.000000
      2.36035      2.36035      0.00000         0.000000     -0.000000      0.000000
 -----------------------------------------------------------------------------------
    total drift:                                0.000000      0.000000      0.000000


--------------------------------------------------------------------------------------------------------



  FREE ENERGIE OF THE ION-ELECTRON SYSTEM (eV)
  ---------------------------------------------------
  free  energy   TOTEN  =       -23.70875598 eV

  energy  without entropy=      -23.71219566  energy(sigma->0) =      -23.70990254
 


--------------------------------------------------------------------------------------------------------


    POTLOK:  cpu time      0.2794: real time      0.2804


--------------------------------------------------------------------------------------------------------


     LOOP+:  cpu time     10.5094: real time     10.8186
    4ORBIT:  cpu time      0.0000: real time      0.0000

 total amount of memory used by VASP MPI-rank0    32404. kBytes
=======================================================================

   base      :      30000. kBytes
   nonlr-proj:       1284. kBytes
   fftplans  :        306. kBytes
   grid      :        410. kBytes
   one-center:         49. kBytes
   wavefun   :        355. kBytes
 
  
  
 General timing and accounting informations for this job:
 ========================================================
  
                  Total CPU time used (sec):       12.267
                            User time (sec):       11.086
                          System time (sec):        1.181
                         Elapsed time (sec):       13.024
  
                   Maximum memory used (kb):      241904.
                   Average memory used (kb):          N/A
  
                          Minor page faults:        49074
                          Major page faults:            7
                 Voluntary context switches:         5369
