<?xml version="1.0" encoding="ISO-8859-1"?>
<modeling>
 <generator>
  <i name="program" type="string">vasp </i>
  <i name="version" type="string">6.3.0  </i>
  <i name="subversion" type="string">20Jan22 (build Mar 25 2022 12:20:17) complex                          parallel </i>
  <i name="platform" type="string">LinuxIFC </i>
  <i name="date" type="string">2023 08 20 </i>
  <i name="time" type="string">13:25:49 </i>
 </generator>
 <incar>
  <i type="string" name="PREC">Accurate</i>
  <i type="string" name="ALGO">normal</i>
  <i type="int" name="NELM">   400</i>
  <i name="EDIFF">      0.00001000</i>
  <i type="int" name="NSW">     0</i>
  <i type="int" name="ISIF">     2</i>
  <i name="ENCUT">    520.00000000</i>
  <i type="string" name="LREAL">Auto</i>
  <i type="int" name="ISMEAR">     1</i>
  <i name="SIGMA">      0.10000000</i>
  <i name="KSPACING">      0.20000000</i>
  <i type="logical" name="LWAVE"> F  </i>
  <i type="logical" name="LCHARG"> F  </i>
  <i type="logical" name="LASPH"> T  </i>
 </incar>
 <primitive_cell>
  <structure name="primitive_cell" >
   <crystal>
    <varray name="basis" >
     <v>       2.36035261      -2.36035261       0.00000000 </v>
     <v>       2.36035261       0.00000000       2.36035261 </v>
     <v>       0.00000000      -2.36035261       2.36035261 </v>
    </varray>
    <i name="volume">     26.30029699 </i>
    <varray name="rec_basis" >
     <v>       0.21183276      -0.21183276      -0.21183276 </v>
     <v>       0.21183276       0.21183276       0.21183276 </v>
     <v>      -0.21183276      -0.21183276       0.21183276 </v>
    </varray>
   </crystal>
   <varray name="positions" >
    <v>       0.00000000       0.00000000       0.00000000 </v>
   </varray>
  </structure>
  <varray name="primitive_index" >
   <v type="int" >        1 </v>
  </varray>
 </primitive_cell>
 <kpoints>
  <generation param="Gamma">
   <v type="int" name="divisions">       7        7        7 </v>
   <v name="usershift">      0.00000000       0.00000000       0.00000000 </v>
   <v name="genvec1">      0.14285714       0.00000000       0.00000000 </v>
   <v name="genvec2">      0.00000000       0.14285714       0.00000000 </v>
   <v name="genvec3">      0.00000000       0.00000000       0.14285714 </v>
   <v name="shift">      0.00000000       0.00000000       0.00000000 </v>
  </generation>
  <varray name="kpointlist" >
   <v>       0.00000000       0.00000000       0.00000000 </v>
   <v>       0.14285714       0.00000000       0.00000000 </v>
   <v>       0.28571429       0.00000000       0.00000000 </v>
   <v>       0.42857143       0.00000000       0.00000000 </v>
   <v>       0.14285714       0.14285714       0.00000000 </v>
   <v>       0.28571429       0.14285714       0.00000000 </v>
   <v>       0.42857143       0.14285714       0.00000000 </v>
   <v>       0.28571429       0.28571429       0.00000000 </v>
   <v>       0.42857143       0.28571429       0.00000000 </v>
   <v>       0.42857143       0.42857143       0.00000000 </v>
   <v>       0.14285714       0.14285714       0.14285714 </v>
   <v>       0.28571429       0.14285714       0.14285714 </v>
   <v>       0.42857143       0.14285714       0.14285714 </v>
   <v>       0.28571429       0.28571429       0.14285714 </v>
   <v>       0.42857143       0.28571429       0.14285714 </v>
   <v>       0.42857143       0.42857143       0.14285714 </v>
   <v>       0.28571429       0.28571429       0.28571429 </v>
   <v>       0.42857143       0.28571429       0.28571429 </v>
   <v>       0.42857143       0.42857143       0.28571429 </v>
   <v>       0.42857143       0.42857143       0.42857143 </v>
  </varray>
  <varray name="weights" >
   <v>       0.00291545 </v>
   <v>       0.01749271 </v>
   <v>       0.01749271 </v>
   <v>       0.01749271 </v>
   <v>       0.03498542 </v>
   <v>       0.06997085 </v>
   <v>       0.06997085 </v>
   <v>       0.03498542 </v>
   <v>       0.06997085 </v>
   <v>       0.03498542 </v>
   <v>       0.02332362 </v>
   <v>       0.06997085 </v>
   <v>       0.06997085 </v>
   <v>       0.06997085 </v>
   <v>       0.13994169 </v>
   <v>       0.06997085 </v>
   <v>       0.02332362 </v>
   <v>       0.06997085 </v>
   <v>       0.06997085 </v>
   <v>       0.02332362 </v>
  </varray>
 </kpoints>
 <parameters>
  <separator name="general" >
   <i type="string" name="SYSTEM">unknown system</i>
   <i type="logical" name="LCOMPAT"> F  </i>
  </separator>
  <separator name="electronic" >
   <i type="string" name="PREC">accura</i>
   <i name="ENMAX">    520.00000000</i>
   <i name="ENAUG">    580.19600000</i>
   <i name="EDIFF">      0.00001000</i>
   <i type="int" name="IALGO">    38</i>
   <i type="int" name="IWAVPR">    10</i>
   <i type="int" name="NBANDS">    30</i>
   <i type="int" name="NBANDSLOW">    -1</i>
   <i type="int" name="NBANDSHIGH">    -1</i>
   <i name="NELECT">     48.00000000</i>
   <i type="int" name="TURBO">     0</i>
   <i type="int" name="IRESTART">     0</i>
   <i type="int" name="NREBOOT">     0</i>
   <i type="int" name="NMIN">     0</i>
   <i name="EREF">      0.00000000</i>
   <separator name="electronic smearing" >
    <i type="int" name="ISMEAR">     1</i>
    <i name="SIGMA">      0.10000000</i>
    <i name="KSPACING">      0.20000000</i>
    <i type="logical" name="KGAMMA"> T  </i>
    <i type="logical" name="KBLOWUP"> T  </i>
   </separator>
   <separator name="electronic projectors" >
    <i type="logical" name="LREAL"> T  </i>
    <v name="ROPT">     -0.00025000</v>
    <i type="int" name="LMAXPAW">  -100</i>
    <i type="int" name="LMAXMIX">     2</i>
    <i type="logical" name="NLSPLINE"> F  </i>
   </separator>
   <separator name="electronic startup" >
    <i type="int" name="ISTART">     0</i>
    <i type="int" name="ICHARG">     2</i>
    <i type="int" name="INIWAV">     1</i>
   </separator>
   <separator name="electronic spin" >
    <i type="int" name="ISPIN">     1</i>
    <i type="logical" name="LNONCOLLINEAR"> F  </i>
    <v name="MAGMOM">      1.00000000      1.00000000      1.00000000      1.00000000</v>
    <i name="NUPDOWN">     -1.00000000</i>
    <i type="logical" name="LSORBIT"> F  </i>
    <v name="SAXIS">      0.00000000      0.00000000      1.00000000</v>
    <i type="logical" name="LSPIRAL"> F  </i>
    <v name="QSPIRAL">      0.00000000      0.00000000      0.00000000</v>
    <i type="logical" name="LZEROZ"> F  </i>
   </separator>
   <separator name="electronic exchange-correlation" >
    <i type="logical" name="LASPH"> T  </i>
    <i type="logical" name="LMETAGGA"> F  </i>
   </separator>
   <separator name="electronic convergence" >
    <i type="int" name="NELM">   400</i>
    <i type="int" name="NELMDL">    -5</i>
    <i type="int" name="NELMIN">     2</i>
    <i name="ENINI">    520.00000000</i>
    <separator name="electronic convergence detail" >
     <i type="logical" name="LDIAG"> T  </i>
     <i type="logical" name="LSUBROT"> F  </i>
     <i name="WEIMIN">      0.00000000</i>
     <i name="EBREAK">      0.00000008</i>
     <i name="DEPER">      0.30000000</i>
     <i type="int" name="NRMM">     4</i>
     <i name="TIME">      0.40000000</i>
    </separator>
   </separator>
   <separator name="electronic mixer" >
    <i name="AMIX">      0.40000000</i>
    <i name="BMIX">      1.00000000</i>
    <i name="AMIN">      0.10000000</i>
    <i name="AMIX_MAG">      1.60000000</i>
    <i name="BMIX_MAG">      1.00000000</i>
    <separator name="electronic mixer details" >
     <i type="int" name="IMIX">     4</i>
     <i type="logical" name="MIXFIRST"> F  </i>
     <i type="int" name="MAXMIX">   -45</i>
     <i name="WC">    100.00000000</i>
     <i type="int" name="INIMIX">     1</i>
     <i type="int" name="MIXPRE">     1</i>
     <i type="int" name="MREMOVE">     5</i>
    </separator>
   </separator>
   <separator name="electronic dipolcorrection" >
    <i type="logical" name="LDIPOL"> F  </i>
    <i type="logical" name="LMONO"> F  </i>
    <i type="int" name="IDIPOL">     0</i>
    <i name="EPSILON">      1.00000000</i>
    <v name="DIPOL">   -100.00000000   -100.00000000   -100.00000000</v>
    <i name="EFIELD">      0.00000000</i>
   </separator>
  </separator>
  <separator name="grids" >
   <i type="int" name="NGX">    36</i>
   <i type="int" name="NGY">    36</i>
   <i type="int" name="NGZ">    36</i>
   <i type="int" name="NGXF">    72</i>
   <i type="int" name="NGYF">    72</i>
   <i type="int" name="NGZF">    72</i>
   <i type="logical" name="ADDGRID"> F  </i>
  </separator>
  <separator name="ionic" >
   <i type="int" name="NSW">     0</i>
   <i type="int" name="IBRION">    -1</i>
   <i type="int" name="MDALGO">     0</i>
   <i type="int" name="ISIF">     2</i>
   <i name="PSTRESS">      0.00000000</i>
   <i name="EDIFFG">      0.00010000</i>
   <i type="int" name="NFREE">     0</i>
   <i name="POTIM">      0.50000000</i>
   <i name="SMASS">     -3.00000000</i>
   <i name="SCALEE">      1.00000000</i>
  </separator>
  <separator name="ionic md" >
   <i name="TEBEG">      0.00010000</i>
   <i name="TEEND">      0.00010000</i>
   <i type="int" name="NBLOCK">     1</i>
   <i type="int" name="KBLOCK">     1</i>
   <i type="int" name="NPACO">   256</i>
   <i name="APACO">     10.00000000</i>
  </separator>
  <separator name="symmetry" >
   <i type="int" name="ISYM">     2</i>
   <i name="SYMPREC">      0.00001000</i>
  </separator>
  <separator name="dos" >
   <i type="int" name="LORBIT">     0</i>
   <v name="RWIGS">     -1.00000000</v>
   <i type="int" name="NEDOS">   301</i>
   <i name="EMIN">     10.00000000</i>
   <i name="EMAX">    -10.00000000</i>
   <i name="EFERMI">      0.00000000</i>
  </separator>
  <separator name="writing" >
   <i type="int" name="NWRITE">     2</i>
   <i type="logical" name="LWAVE"> F  </i>
   <i type="logical" name="LDOWNSAMPLE"> F  </i>
   <i type="logical" name="LCHARG"> F  </i>
   <i type="logical" name="LPARD"> F  </i>
   <i type="logical" name="LVTOT"> F  </i>
   <i type="logical" name="LVHAR"> F  </i>
   <i type="logical" name="LELF"> F  </i>
   <i type="logical" name="LOPTICS"> F  </i>
   <v name="STM">      0.00000000      0.00000000      0.00000000      0.00000000      0.00000000      0.00000000      0.00000000</v>
  </separator>
  <separator name="performance" >
   <i type="int" name="NPAR">     6</i>
   <i type="int" name="NSIM">     4</i>
   <i type="int" name="NBLK">    -1</i>
   <i type="logical" name="LPLANE"> T  </i>
   <i type="logical" name="LSCALAPACK"> T  </i>
   <i type="logical" name="LSCAAWARE"> F  </i>
   <i type="logical" name="LSCALU"> F  </i>
   <i type="logical" name="LASYNC"> F  </i>
   <i type="logical" name="LORBITALREAL"> F  </i>
  </separator>
  <separator name="miscellaneous" >
   <i type="int" name="IDIOT">     3</i>
   <i type="int" name="PHON_NSTRUCT">    -1</i>
   <i type="logical" name="LMUSIC"> F  </i>
   <v name="POMASS">    140.11500000</v>
   <v name="DARWINR">      0.00000000</v>
   <v name="DARWINV">      1.00000000</v>
   <i type="logical" name="LCORR"> T  </i>
  </separator>
  <i type="logical" name="GGA_COMPAT"> T  </i>
  <i type="logical" name="LBERRY"> F  </i>
  <i type="int" name="ICORELEVEL">     0</i>
  <i type="logical" name="LDAU"> F  </i>
  <i type="int" name="I_CONSTRAINED_M">     0</i>
  <separator name="electronic exchange-correlation" >
   <i type="string" name="GGA">--</i>
   <i type="int" name="VOSKOWN">     0</i>
   <i type="logical" name="LHFCALC"> F  </i>
   <i type="string" name="PRECFOCK"></i>
   <i type="logical" name="LSYMGRAD"> F  </i>
   <i type="logical" name="LHFONE"> F  </i>
   <i type="logical" name="LRHFCALC"> F  </i>
   <i type="logical" name="LTHOMAS"> F  </i>
   <i type="logical" name="LMODELHF"> F  </i>
   <i type="logical" name="LFOCKACE"> F  </i>
   <i name="ENCUT4O">     -1.00000000</i>
   <i type="int" name="EXXOEP">     0</i>
   <i type="int" name="FOURORBIT">     0</i>
   <i name="AEXX">      0.00000000</i>
   <i name="HFALPHA">      0.00000000</i>
   <i name="MCALPHA">      0.00000000</i>
   <i name="ALDAX">      1.00000000</i>
   <i name="AGGAX">      1.00000000</i>
   <i name="ALDAC">      1.00000000</i>
   <i name="AGGAC">      1.00000000</i>
   <i type="int" name="NKREDX">     1</i>
   <i type="int" name="NKREDY">     1</i>
   <i type="int" name="NKREDZ">     1</i>
   <i type="logical" name="SHIFTRED"> F  </i>
   <i type="logical" name="ODDONLY"> F  </i>
   <i type="logical" name="EVENONLY"> F  </i>
   <i type="int" name="LMAXFOCK">     0</i>
   <i type="int" name="NMAXFOCKAE">     0</i>
   <i type="logical" name="LFOCKAEDFT"> F  </i>
   <i name="HFSCREEN">      0.00000000</i>
   <i name="HFSCREENC">      0.00000000</i>
   <i type="int" name="NBANDSGWLOW">     0</i>
  </separator>
  <separator name="vdW DFT" >
   <i type="logical" name="LUSE_VDW"> F  </i>
   <i name="Zab_VDW">     -0.84910000</i>
   <i name="PARAM1">      0.12340000</i>
   <i name="PARAM2">      1.00000000</i>
   <i name="PARAM3">      0.00000000</i>
  </separator>
  <separator name="model GW" >
   <i type="int" name="MODEL_GW">     0</i>
   <i name="MODEL_EPS0">     15.78017820</i>
   <i name="MODEL_ALPHA">      1.00000000</i>
  </separator>
  <separator name="linear response parameters" >
   <i type="logical" name="LEPSILON"> F  </i>
   <i type="logical" name="LRPA"> F  </i>
   <i type="logical" name="LNABLA"> F  </i>
   <i type="logical" name="LVEL"> F  </i>
   <i name="CSHIFT">      0.10000000</i>
   <i name="OMEGAMAX">     -1.00000000</i>
   <i name="DEG_THRESHOLD">      0.00200000</i>
   <i name="RTIME">     -0.10000000</i>
   <i name="WPLASMAI">      0.00000000</i>
   <v name="DFIELD">      0.00000000      0.00000000      0.00000000</v>
   <v name="WPLASMA">      0.00000000      0.00000000      0.00000000      0.00000000      0.00000000      0.00000000      0.00000000      0.00000000      0.00000000</v>
  </separator>
  <separator name="orbital magnetization" >
   <i type="logical" name="NUCIND"> F  </i>
   <v name="MAGPOS">      0.00000000      0.00000000      0.00000000</v>
   <i type="logical" name="LNICSALL"> T  </i>
   <i type="logical" name="ORBITALMAG"> F  </i>
   <i type="logical" name="LMAGBLOCH"> F  </i>
   <i type="logical" name="LCHIMAG"> F  </i>
   <i type="logical" name="LGAUGE"> T  </i>
   <i type="int" name="MAGATOM">     0</i>
   <v name="MAGDIPOL">      0.00000000      0.00000000      0.00000000</v>
   <v name="AVECCONST">      0.00000000      0.00000000      0.00000000</v>
  </separator>
  <separator name="response functions" >
   <i type="logical" name="LFINITE_TEMPERATURE"> F  </i>
   <i type="logical" name="LADDER"> F  </i>
   <i type="logical" name="LRPAFORCE"> F  </i>
   <i type="logical" name="LFXC"> F  </i>
   <i type="logical" name="LHARTREE"> T  </i>
   <i type="int" name="IBSE">     0</i>
   <v type="int" name="KPOINT">    -1     0     0     0</v>
   <i type="logical" name="LTCTC"> F  </i>
   <i type="logical" name="LTCTE"> F  </i>
   <i type="logical" name="LTETE"> F  </i>
   <i type="logical" name="LTRIPLET"> F  </i>
   <i type="logical" name="LFXCEPS"> F  </i>
   <i type="logical" name="LFXHEG"> F  </i>
   <i type="int" name="NATURALO">     2</i>
   <i type="logical" name="LHOLEGF"> F  </i>
   <i type="logical" name="L2ORDER"> F  </i>
   <i type="logical" name="LDMP1"> F  </i>
   <i type="logical" name="LMP2LT"> F  </i>
   <i type="logical" name="LSMP2LT"> F  </i>
   <i type="logical" name="LGWLF"> F  </i>
   <i name="ENCUTGW">     -2.00000000</i>
   <i name="ENCUTGWSOFT">     -2.00000000</i>
   <i name="ENCUTLF">     -1.00000000</i>
   <i type="logical" name="LESF_SPLINES"> F  </i>
   <i type="int" name="LMAXMP2">    -1</i>
   <i name="SCISSOR">      0.00000000</i>
   <i type="int" name="NOMEGA">     0</i>
   <i type="int" name="NOMEGAR">     0</i>
   <i type="int" name="NBANDSGW">    -1</i>
   <i type="int" name="NBANDSO">    -1</i>
   <i type="int" name="NBANDSV">    -1</i>
   <i type="int" name="NELMGW">     1</i>
   <i type="int" name="NELMHF">     1</i>
   <i type="int" name="DIM">     3</i>
   <i type="int" name="IESPILON">     4</i>
   <i type="int" name="ANTIRES">     0</i>
   <i name="OMEGAMAX">    -30.00000000</i>
   <i name="OMEGAMIN">    -30.00000000</i>
   <i name="OMEGATL">   -200.00000000</i>
   <i type="int" name="OMEGAGRID">     0</i>
   <i name="CSHIFT">     -0.10000000</i>
   <i type="logical" name="LSELFENERGY"> F  </i>
   <i type="logical" name="LSPECTRAL"> F  </i>
   <i type="logical" name="LSPECTRALGW"> F  </i>
   <i type="logical" name="LSINGLES"> F  </i>
   <i type="logical" name="LFERMIGW"> F  </i>
   <i type="logical" name="ODDONLYGW"> F  </i>
   <i type="logical" name="EVENONLYGW"> F  </i>
   <i type="int" name="NKREDLFX">     1</i>
   <i type="int" name="NKREDLFY">     1</i>
   <i type="int" name="NKREDLFZ">     1</i>
   <i type="int" name="MAXMEM">  2800</i>
   <i type="int" name="TELESCOPE">     0</i>
   <i type="int" name="NTAUPAR">    -1</i>
   <i type="int" name="NOMEGAPAR">    -1</i>
   <i name="DAMP_NEWTON">      0.80000001</i>
   <i name="LAMBDA">      1.00000000</i>
  </separator>
  <separator name="External order field" >
   <i name="OFIELD_KAPPA">      0.00000000</i>
   <v name="OFIELD_K">      0.00000000      0.00000000      0.00000000</v>
   <i name="OFIELD_Q6_NEAR">      0.00000000</i>
   <i name="OFIELD_Q6_FAR">      0.00000000</i>
   <i name="OFIELD_A">      0.00000000</i>
  </separator>
  <separator name="optional k-points parameters" >
   <i type="int" name="KPOINTS_OPT_MODE">     1</i>
   <i type="logical" name="LKPOINTS_OPT"> F  </i>
  </separator>
 </parameters>
 <atominfo>
  <atoms>       4 </atoms>
  <types>       1 </types>
  <array name="atoms" >
   <dimension dim="1">ion</dimension>
   <field type="string">element</field>
   <field type="int">atomtype</field>
   <set>
    <rc><c>Ce</c><c>   1</c></rc>
    <rc><c>Ce</c><c>   1</c></rc>
    <rc><c>Ce</c><c>   1</c></rc>
    <rc><c>Ce</c><c>   1</c></rc>
   </set>
  </array>
  <array name="atomtypes" >
   <dimension dim="1">type</dimension>
   <field type="int">atomspertype</field>
   <field type="string">element</field>
   <field>mass</field>
   <field>valence</field>
   <field type="string">pseudopotential</field>
   <set>
    <rc><c>   4</c><c>Ce</c><c>    140.11500000</c><c>     12.00000000</c><c>  PAW_PBE Ce 23Dec2003                  </c></rc>
   </set>
  </array>
 </atominfo>
 <structure name="initialpos" >
  <crystal>
   <varray name="basis" >
    <v>       4.72070521       0.00000000       0.00000000 </v>
    <v>       0.00000000       4.72070521       0.00000000 </v>
    <v>       0.00000000       0.00000000       4.72070521 </v>
   </varray>
   <i name="volume">    105.20118797 </i>
   <varray name="rec_basis" >
    <v>       0.21183276       0.00000000       0.00000000 </v>
    <v>       0.00000000       0.21183276       0.00000000 </v>
    <v>       0.00000000       0.00000000       0.21183276 </v>
   </varray>
  </crystal>
  <varray name="positions" >
   <v>       0.00000000       0.00000000       0.00000000 </v>
   <v>       0.00000000       0.50000000       0.50000000 </v>
   <v>       0.50000000       0.00000000       0.50000000 </v>
   <v>       0.50000000       0.50000000       0.00000000 </v>
  </varray>
 </structure>
 <calculation>
  <scstep>
   <time name="dav">    0.28    0.36</time>
   <time name="total">    0.58    0.66</time>
   <energy>
    <i name="alphaZ">    320.10101187 </i>
    <i name="ewald">  -4027.80057458 </i>
    <i name="hartreedc">   -470.60953460 </i>
    <i name="XCdc">     24.34423300 </i>
    <i name="pawpsdc">   3403.36026388 </i>
    <i name="pawaedc">  -3306.37754537 </i>
    <i name="eentropy">     -0.00227872 </i>
    <i name="bandstr">    331.37839172 </i>
    <i name="atom">   4252.29121739 </i>
    <i name="e_fr_energy">    526.68518459 </i>
    <i name="e_wo_entrp">    526.68746331 </i>
    <i name="e_0_energy">    526.68594416 </i>
   </energy>
  </scstep>
  <scstep>
   <time name="dav">    0.33    0.34</time>
   <time name="total">    0.33    0.34</time>
   <energy>
    <i name="e_fr_energy">     45.85785280 </i>
    <i name="e_wo_entrp">     45.85412979 </i>
    <i name="e_0_energy">     45.85661180 </i>
   </energy>
  </scstep>
  <scstep>
   <time name="dav">    0.26    0.27</time>
   <time name="total">    0.26    0.27</time>
   <energy>
    <i name="e_fr_energy">    -21.31375310 </i>
    <i name="e_wo_entrp">    -21.31805310 </i>
    <i name="e_0_energy">    -21.31518644 </i>
   </energy>
  </scstep>
  <scstep>
   <time name="dav">    0.36    0.37</time>
   <time name="total">    0.36    0.37</time>
   <energy>
    <i name="e_fr_energy">    -25.59888333 </i>
    <i name="e_wo_entrp">    -25.59907606 </i>
    <i name="e_0_energy">    -25.59894758 </i>
   </energy>
  </scstep>
  <scstep>
   <time name="dav">    0.30    0.31</time>
   <time name="total">    0.32    0.34</time>
   <energy>
    <i name="e_fr_energy">    -26.08451731 </i>
    <i name="e_wo_entrp">    -26.08120035 </i>
    <i name="e_0_energy">    -26.08341166 </i>
   </energy>
  </scstep>
  <scstep>
   <time name="dav">    0.32    0.32</time>
   <time name="total">    0.63    0.65</time>
   <energy>
    <i name="e_fr_energy">    -25.50773085 </i>
    <i name="e_wo_entrp">    -25.50375502 </i>
    <i name="e_0_energy">    -25.50640557 </i>
   </energy>
  </scstep>
  <scstep>
   <time name="dav">    0.33    0.33</time>
   <time name="total">    0.64    0.65</time>
   <energy>
    <i name="e_fr_energy">    -24.03696378 </i>
    <i name="e_wo_entrp">    -24.03371320 </i>
    <i name="e_0_energy">    -24.03588026 </i>
   </energy>
  </scstep>
  <scstep>
   <time name="dav">    0.32    0.33</time>
   <time name="total">    0.63    0.64</time>
   <energy>
    <i name="e_fr_energy">    -23.66864315 </i>
    <i name="e_wo_entrp">    -23.67146864 </i>
    <i name="e_0_energy">    -23.66958498 </i>
   </energy>
  </scstep>
  <scstep>
   <time name="dav">    0.33    0.33</time>
   <time name="total">    0.63    0.65</time>
   <energy>
    <i name="e_fr_energy">    -23.69805999 </i>
    <i name="e_wo_entrp">    -23.70141363 </i>
    <i name="e_0_energy">    -23.69917787 </i>
   </energy>
  </scstep>
  <scstep>
   <time name="dav">    0.31    0.32</time>
   <time name="total">    0.62    0.63</time>
   <energy>
    <i name="e_fr_energy">    -23.70262057 </i>
    <i name="e_wo_entrp">    -23.70598831 </i>
    <i name="e_0_energy">    -23.70374315 </i>
   </energy>
  </scstep>
  <scstep>
   <time name="dav">    0.32    0.32</time>
   <time name="total">    0.62    0.64</time>
   <energy>
    <i name="e_fr_energy">    -23.70853926 </i>
    <i name="e_wo_entrp">    -23.71189530 </i>
    <i name="e_0_energy">    -23.70965794 </i>
   </energy>
  </scstep>
  <scstep>
   <time name="dav">    0.33    0.33</time>
   <time name="total">    0.64    0.65</time>
   <energy>
    <i name="e_fr_energy">    -23.70917879 </i>
    <i name="e_wo_entrp">    -23.71253524 </i>
    <i name="e_0_energy">    -23.71029761 </i>
   </energy>
  </scstep>
  <scstep>
   <time name="dav">    0.33    0.33</time>
   <time name="total">    0.64    0.65</time>
   <energy>
    <i name="e_fr_energy">    -23.70883879 </i>
    <i name="e_wo_entrp">    -23.71223899 </i>
    <i name="e_0_energy">    -23.70997219 </i>
   </energy>
  </scstep>
  <scstep>
   <time name="dav">    0.34    0.34</time>
   <time name="total">    0.64    0.66</time>
   <energy>
    <i name="e_fr_energy">    -23.70879826 </i>
    <i name="e_wo_entrp">    -23.71221003 </i>
    <i name="e_0_energy">    -23.70993552 </i>
   </energy>
  </scstep>
  <scstep>
   <time name="dav">    0.24    0.24</time>
   <time name="total">    0.55    0.56</time>
   <energy>
    <i name="e_fr_energy">    -23.70881315 </i>
    <i name="e_wo_entrp">    -23.71222764 </i>
    <i name="e_0_energy">    -23.70995131 </i>
   </energy>
  </scstep>
  <scstep>
   <time name="dav">    0.28    0.28</time>
   <time name="total">    0.58    0.60</time>
   <energy>
    <i name="e_fr_energy">    -23.70879064 </i>
    <i name="e_wo_entrp">    -23.71221297 </i>
    <i name="e_0_energy">    -23.70993142 </i>
   </energy>
  </scstep>
  <scstep>
   <time name="dav">    0.29    0.29</time>
   <time name="total">    0.59    0.61</time>
   <energy>
    <i name="e_fr_energy">    -23.70875856 </i>
    <i name="e_wo_entrp">    -23.71219395 </i>
    <i name="e_0_energy">    -23.70990369 </i>
   </energy>
  </scstep>
  <scstep>
   <time name="dav">    0.19    0.19</time>
   <time name="total">    0.49    0.49</time>
   <energy>
    <i name="alphaZ">    320.10101187 </i>
    <i name="ewald">  -4027.80057458 </i>
    <i name="hartreedc">   -440.37970174 </i>
    <i name="XCdc">     24.04668689 </i>
    <i name="pawpsdc">   3830.20553192 </i>
    <i name="pawaedc">  -3735.52942916 </i>
    <i name="eentropy">      0.00343968 </i>
    <i name="bandstr">   -246.64693824 </i>
    <i name="atom">   4252.29121739 </i>
    <i name="e_fr_energy">    -23.70875598 </i>
    <i name="e_wo_entrp">    -23.71219566 </i>
    <i name="e_0_energy">    -23.70990254 </i>
   </energy>
  </scstep>
  <structure>
   <crystal>
    <varray name="basis" >
     <v>       4.72070521       0.00000000       0.00000000 </v>
     <v>       0.00000000       4.72070521       0.00000000 </v>
     <v>       0.00000000       0.00000000       4.72070521 </v>
    </varray>
    <i name="volume">    105.20118797 </i>
    <varray name="rec_basis" >
     <v>       0.21183276       0.00000000       0.00000000 </v>
     <v>       0.00000000       0.21183276       0.00000000 </v>
     <v>       0.00000000       0.00000000       0.21183276 </v>
    </varray>
   </crystal>
   <varray name="positions" >
    <v>       0.00000000       0.00000000       0.00000000 </v>
    <v>       0.00000000       0.50000000       0.50000000 </v>
    <v>       0.50000000       0.00000000       0.50000000 </v>
    <v>       0.50000000       0.50000000       0.00000000 </v>
   </varray>
  </structure>
  <varray name="forces" >
   <v>       0.00000000       0.00000000       0.00000000 </v>
   <v>       0.00000000       0.00000000      -0.00000000 </v>
   <v>      -0.00000000      -0.00000000      -0.00000000 </v>
   <v>       0.00000000      -0.00000000       0.00000000 </v>
  </varray>
  <varray name="stress" >
   <v>       0.54577096      -0.00000000       0.00000000 </v>
   <v>      -0.00000000       0.54577096      -0.00000000 </v>
   <v>       0.00000000      -0.00000000       0.54577096 </v>
  </varray>
  <energy>
   <i name="e_fr_energy">    -23.70875598 </i>
   <i name="e_wo_entrp">    -23.71219566 </i>
   <i name="e_0_energy">    -23.70990254 </i>
  </energy>
  <time name="totalsc">   10.51   10.82</time>
  <eigenvalues>
   <array>
    <dimension dim="1">band</dimension>
    <dimension dim="2">kpoint</dimension>
    <dimension dim="3">spin</dimension>
    <field>eigene</field>
    <field>occ</field>
    <set>
     <set comment="spin 1">
      <set comment="kpoint 1">
       <r>  -25.2852    1.0000 </r>
       <r>  -24.5681    1.0000 </r>
       <r>  -24.5681    1.0000 </r>
       <r>  -24.5681    1.0000 </r>
       <r>   -9.1072    1.0000 </r>
       <r>   -9.1072    1.0000 </r>
       <r>   -9.1072    1.0000 </r>
       <r>   -7.4642    1.0000 </r>
       <r>   -7.4642    1.0000 </r>
       <r>   -7.4642    1.0000 </r>
       <r>   -7.4642    1.0000 </r>
       <r>   -7.4642    1.0000 </r>
       <r>   -7.4642    1.0000 </r>
       <r>   -6.4228    1.0000 </r>
       <r>   -6.4228    1.0000 </r>
       <r>   -6.4228    1.0000 </r>
       <r>    6.6027    1.0000 </r>
       <r>    6.6027    1.0000 </r>
       <r>    6.6027    1.0000 </r>
       <r>    6.6269    1.0000 </r>
       <r>    7.2591    1.0000 </r>
       <r>    7.2591    1.0000 </r>
       <r>    7.2591    1.0000 </r>
       <r>    9.2671    1.0042 </r>
       <r>    9.8690   -0.0000 </r>
       <r>    9.8690   -0.0000 </r>
       <r>    9.8690   -0.0000 </r>
       <r>   10.0108   -0.0000 </r>
       <r>   10.0108   -0.0000 </r>
       <r>   10.0109   -0.0000 </r>
      </set>
      <set comment="kpoint 2">
       <r>  -25.2520    1.0000 </r>
       <r>  -24.6061    1.0000 </r>
       <r>  -24.5674    1.0000 </r>
       <r>  -24.5674    1.0000 </r>
       <r>   -9.0389    1.0000 </r>
       <r>   -9.0389    1.0000 </r>
       <r>   -8.9971    1.0000 </r>
       <r>   -7.5629    1.0000 </r>
       <r>   -7.5629    1.0000 </r>
       <r>   -7.4848    1.0000 </r>
       <r>   -7.4848    1.0000 </r>
       <r>   -7.4174    1.0000 </r>
       <r>   -7.4174    1.0000 </r>
       <r>   -6.5917    1.0000 </r>
       <r>   -6.4800    1.0000 </r>
       <r>   -6.4800    1.0000 </r>
       <r>    6.7844    1.0000 </r>
       <r>    6.8401    1.0000 </r>
       <r>    6.8401    1.0000 </r>
       <r>    6.9398    1.0000 </r>
       <r>    7.3474    1.0000 </r>
       <r>    7.5264    1.0000 </r>
       <r>    7.5264    1.0000 </r>
       <r>    9.1725    1.0000 </r>
       <r>    9.8211   -0.0000 </r>
       <r>    9.8901   -0.0000 </r>
       <r>    9.8901   -0.0000 </r>
       <r>   10.0021   -0.0000 </r>
       <r>   10.0028   -0.0000 </r>
       <r>   10.0390   -0.0000 </r>
      </set>
      <set comment="kpoint 3">
       <r>  -25.1577    1.0000 </r>
       <r>  -24.7115    1.0000 </r>
       <r>  -24.5660    1.0000 </r>
       <r>  -24.5660    1.0000 </r>
       <r>   -8.8420    1.0000 </r>
       <r>   -8.8420    1.0000 </r>
       <r>   -8.6802    1.0000 </r>
       <r>   -7.8272    1.0000 </r>
       <r>   -7.8272    1.0000 </r>
       <r>   -7.5305    1.0000 </r>
       <r>   -7.5305    1.0000 </r>
       <r>   -7.2843    1.0000 </r>
       <r>   -7.2843    1.0000 </r>
       <r>   -7.0351    1.0000 </r>
       <r>   -6.6368    1.0000 </r>
       <r>   -6.6368    1.0000 </r>
       <r>    7.2898    1.0000 </r>
       <r>    7.4689    1.0000 </r>
       <r>    7.4689    1.0000 </r>
       <r>    7.6032    1.0000 </r>
       <r>    7.7315    1.0000 </r>
       <r>    8.2601    1.0000 </r>
       <r>    8.2601    1.0000 </r>
       <r>    8.8881    1.0000 </r>
       <r>    9.6876   -0.0075 </r>
       <r>    9.9455   -0.0000 </r>
       <r>    9.9461   -0.0000 </r>
       <r>    9.9493   -0.0000 </r>
       <r>    9.9533   -0.0000 </r>
       <r>    9.9568   -0.0000 </r>
      </set>
      <set comment="kpoint 4">
       <r>  -25.0186    1.0000 </r>
       <r>  -24.8596    1.0000 </r>
       <r>  -24.5649    1.0000 </r>
       <r>  -24.5649    1.0000 </r>
       <r>   -8.5411    1.0000 </r>
       <r>   -8.5411    1.0000 </r>
       <r>   -8.1969    1.0000 </r>
       <r>   -8.1808    1.0000 </r>
       <r>   -8.1808    1.0000 </r>
       <r>   -7.6150    1.0000 </r>
       <r>   -7.5667    1.0000 </r>
       <r>   -7.5667    1.0000 </r>
       <r>   -7.0853    1.0000 </r>
       <r>   -7.0853    1.0000 </r>
       <r>   -6.8546    1.0000 </r>
       <r>   -6.8546    1.0000 </r>
       <r>    7.9633    1.0000 </r>
       <r>    7.9952    1.0000 </r>
       <r>    8.1598    1.0000 </r>
       <r>    8.1598    1.0000 </r>
       <r>    8.3433    1.0000 </r>
       <r>    8.4587    1.0000 </r>
       <r>    9.1841    1.0001 </r>
       <r>    9.1841    1.0001 </r>
       <r>    9.7062   -0.0039 </r>
       <r>    9.7492   -0.0006 </r>
       <r>    9.7492   -0.0006 </r>
       <r>    9.7578   -0.0004 </r>
       <r>    9.7578   -0.0004 </r>
       <r>   10.0325   -0.0000 </r>
      </set>
      <set comment="kpoint 5">
       <r>  -25.2200    1.0000 </r>
       <r>  -24.6035    1.0000 </r>
       <r>  -24.6035    1.0000 </r>
       <r>  -24.5686    1.0000 </r>
       <r>   -8.9714    1.0000 </r>
       <r>   -8.9477    1.0000 </r>
       <r>   -8.9477    1.0000 </r>
       <r>   -7.7545    1.0000 </r>
       <r>   -7.5146    1.0000 </r>
       <r>   -7.5146    1.0000 </r>
       <r>   -7.4263    1.0000 </r>
       <r>   -7.4263    1.0000 </r>
       <r>   -7.3886    1.0000 </r>
       <r>   -6.8289    1.0000 </r>
       <r>   -6.5399    1.0000 </r>
       <r>   -6.4438    1.0000 </r>
       <r>    6.9554    1.0000 </r>
       <r>    7.0192    1.0000 </r>
       <r>    7.0192    1.0000 </r>
       <r>    7.2141    1.0000 </r>
       <r>    7.6070    1.0000 </r>
       <r>    7.6070    1.0000 </r>
       <r>    7.8799    1.0000 </r>
       <r>    9.1114    1.0000 </r>
       <r>    9.8027   -0.0000 </r>
       <r>    9.8826   -0.0000 </r>
       <r>    9.9120   -0.0000 </r>
       <r>   10.0043   -0.0000 </r>
       <r>   10.0225   -0.0000 </r>
       <r>   10.0417   -0.0000 </r>
      </set>
      <set comment="kpoint 6">
       <r>  -25.1297    1.0000 </r>
       <r>  -24.7035    1.0000 </r>
       <r>  -24.5968    1.0000 </r>
       <r>  -24.5725    1.0000 </r>
       <r>   -8.8063    1.0000 </r>
       <r>   -8.7766    1.0000 </r>
       <r>   -8.6843    1.0000 </r>
       <r>   -8.0337    1.0000 </r>
       <r>   -7.7748    1.0000 </r>
       <r>   -7.4391    1.0000 </r>
       <r>   -7.3767    1.0000 </r>
       <r>   -7.3606    1.0000 </r>
       <r>   -7.2681    1.0000 </r>
       <r>   -7.2618    1.0000 </r>
       <r>   -6.7036    1.0000 </r>
       <r>   -6.5450    1.0000 </r>
       <r>    7.4034    1.0000 </r>
       <r>    7.5173    1.0000 </r>
       <r>    7.6374    1.0000 </r>
       <r>    7.8382    1.0000 </r>
       <r>    7.9226    1.0000 </r>
       <r>    8.3166    1.0000 </r>
       <r>    8.6928    1.0000 </r>
       <r>    8.9113    1.0000 </r>
       <r>    9.6702   -0.0128 </r>
       <r>    9.8750   -0.0000 </r>
       <r>    9.9411   -0.0000 </r>
       <r>    9.9576   -0.0000 </r>
       <r>    9.9738   -0.0000 </r>
       <r>    9.9872   -0.0000 </r>
      </set>
      <set comment="kpoint 7">
       <r>  -24.9967    1.0000 </r>
       <r>  -24.8447    1.0000 </r>
       <r>  -24.5877    1.0000 </r>
       <r>  -24.5791    1.0000 </r>
       <r>   -8.5905    1.0000 </r>
       <r>   -8.4792    1.0000 </r>
       <r>   -8.3241    1.0000 </r>
       <r>   -8.2788    1.0000 </r>
       <r>   -8.1234    1.0000 </r>
       <r>   -7.7824    1.0000 </r>
       <r>   -7.4299    1.0000 </r>
       <r>   -7.3929    1.0000 </r>
       <r>   -7.1704    1.0000 </r>
       <r>   -7.0234    1.0000 </r>
       <r>   -6.9306    1.0000 </r>
       <r>   -6.7622    1.0000 </r>
       <r>    8.0750    1.0000 </r>
       <r>    8.1792    1.0000 </r>
       <r>    8.1843    1.0000 </r>
       <r>    8.2680    1.0000 </r>
       <r>    8.5302    1.0000 </r>
       <r>    8.5757    1.0000 </r>
       <r>    9.2034    1.0002 </r>
       <r>    9.4716    0.6177 </r>
       <r>    9.5878   -0.0272 </r>
       <r>    9.6236   -0.0325 </r>
       <r>    9.7561   -0.0004 </r>
       <r>    9.7673   -0.0003 </r>
       <r>    9.8617   -0.0000 </r>
       <r>    9.8836   -0.0000 </r>
      </set>
      <set comment="kpoint 8">
       <r>  -25.0506    1.0000 </r>
       <r>  -24.6820    1.0000 </r>
       <r>  -24.6820    1.0000 </r>
       <r>  -24.5913    1.0000 </r>
       <r>   -8.6820    1.0000 </r>
       <r>   -8.6820    1.0000 </r>
       <r>   -8.5882    1.0000 </r>
       <r>   -8.3098    1.0000 </r>
       <r>   -7.6819    1.0000 </r>
       <r>   -7.6249    1.0000 </r>
       <r>   -7.6249    1.0000 </r>
       <r>   -7.2039    1.0000 </r>
       <r>   -7.2039    1.0000 </r>
       <r>   -7.1866    1.0000 </r>
       <r>   -6.8857    1.0000 </r>
       <r>   -6.5222    1.0000 </r>
       <r>    7.5711    1.0000 </r>
       <r>    8.1036    1.0000 </r>
       <r>    8.1036    1.0000 </r>
       <r>    8.4240    1.0000 </r>
       <r>    8.4711    1.0000 </r>
       <r>    8.4711    1.0000 </r>
       <r>    8.9295    1.0000 </r>
       <r>    9.4705    0.6268 </r>
       <r>    9.5870   -0.0264 </r>
       <r>    9.7429   -0.0008 </r>
       <r>    9.7429   -0.0008 </r>
       <r>    9.9328   -0.0000 </r>
       <r>    9.9734   -0.0000 </r>
       <r>   10.0223   -0.0000 </r>
      </set>
      <set comment="kpoint 9">
       <r>  -24.9347    1.0000 </r>
       <r>  -24.8029    1.0000 </r>
       <r>  -24.6516    1.0000 </r>
       <r>  -24.6191    1.0000 </r>
       <r>   -8.6385    1.0000 </r>
       <r>   -8.5191    1.0000 </r>
       <r>   -8.4453    1.0000 </r>
       <r>   -8.3011    1.0000 </r>
       <r>   -8.0994    1.0000 </r>
       <r>   -7.9588    1.0000 </r>
       <r>   -7.3997    1.0000 </r>
       <r>   -7.1405    1.0000 </r>
       <r>   -7.1365    1.0000 </r>
       <r>   -7.1187    1.0000 </r>
       <r>   -6.9124    1.0000 </r>
       <r>   -6.6586    1.0000 </r>
       <r>    8.0773    1.0000 </r>
       <r>    8.5321    1.0000 </r>
       <r>    8.6765    1.0000 </r>
       <r>    8.7180    1.0000 </r>
       <r>    8.8542    1.0000 </r>
       <r>    8.9785    1.0000 </r>
       <r>    9.2440    1.0017 </r>
       <r>    9.3599    1.0353 </r>
       <r>    9.5232    0.2060 </r>
       <r>    9.5398    0.1080 </r>
       <r>    9.7587   -0.0004 </r>
       <r>    9.7833   -0.0001 </r>
       <r>    9.9675   -0.0000 </r>
       <r>   10.0105   -0.0000 </r>
      </set>
      <set comment="kpoint 10">
       <r>  -24.8445    1.0000 </r>
       <r>  -24.7433    1.0000 </r>
       <r>  -24.7433    1.0000 </r>
       <r>  -24.6776    1.0000 </r>
       <r>   -8.6127    1.0000 </r>
       <r>   -8.5797    1.0000 </r>
       <r>   -8.5797    1.0000 </r>
       <r>   -8.3907    1.0000 </r>
       <r>   -8.0308    1.0000 </r>
       <r>   -7.7103    1.0000 </r>
       <r>   -7.7103    1.0000 </r>
       <r>   -7.4177    1.0000 </r>
       <r>   -6.9245    1.0000 </r>
       <r>   -6.8595    1.0000 </r>
       <r>   -6.8595    1.0000 </r>
       <r>   -6.6843    1.0000 </r>
       <r>    8.3460    1.0000 </r>
       <r>    8.8052    1.0000 </r>
       <r>    8.8052    1.0000 </r>
       <r>    9.0340    1.0000 </r>
       <r>    9.1226    1.0000 </r>
       <r>    9.2474    1.0019 </r>
       <r>    9.2474    1.0019 </r>
       <r>    9.4574    0.7289 </r>
       <r>    9.5341    0.1388 </r>
       <r>    9.5341    0.1388 </r>
       <r>    9.6364   -0.0273 </r>
       <r>    9.7626   -0.0003 </r>
       <r>    9.9649   -0.0000 </r>
       <r>   10.0012   -0.0000 </r>
      </set>
      <set comment="kpoint 11">
       <r>  -25.1897    1.0000 </r>
       <r>  -24.6028    1.0000 </r>
       <r>  -24.6028    1.0000 </r>
       <r>  -24.6028    1.0000 </r>
       <r>   -8.9063    1.0000 </r>
       <r>   -8.9063    1.0000 </r>
       <r>   -8.9063    1.0000 </r>
       <r>   -7.6703    1.0000 </r>
       <r>   -7.6703    1.0000 </r>
       <r>   -7.6703    1.0000 </r>
       <r>   -7.3456    1.0000 </r>
       <r>   -7.3456    1.0000 </r>
       <r>   -7.3456    1.0000 </r>
       <r>   -7.0616    1.0000 </r>
       <r>   -6.4949    1.0000 </r>
       <r>   -6.4949    1.0000 </r>
       <r>    7.1206    1.0000 </r>
       <r>    7.1206    1.0000 </r>
       <r>    7.1206    1.0000 </r>
       <r>    7.4194    1.0000 </r>
       <r>    7.9602    1.0000 </r>
       <r>    7.9602    1.0000 </r>
       <r>    7.9602    1.0000 </r>
       <r>    9.1062    1.0000 </r>
       <r>    9.7896   -0.0001 </r>
       <r>    9.9036   -0.0000 </r>
       <r>    9.9037   -0.0000 </r>
       <r>   10.0166   -0.0000 </r>
       <r>   10.0234   -0.0000 </r>
       <r>   10.0281   -0.0000 </r>
      </set>
      <set comment="kpoint 12">
       <r>  -25.1032    1.0000 </r>
       <r>  -24.6974    1.0000 </r>
       <r>  -24.6012    1.0000 </r>
       <r>  -24.6012    1.0000 </r>
       <r>   -8.7961    1.0000 </r>
       <r>   -8.7961    1.0000 </r>
       <r>   -8.7102    1.0000 </r>
       <r>   -7.8916    1.0000 </r>
       <r>   -7.8916    1.0000 </r>
       <r>   -7.4965    1.0000 </r>
       <r>   -7.4408    1.0000 </r>
       <r>   -7.3099    1.0000 </r>
       <r>   -7.3099    1.0000 </r>
       <r>   -7.2234    1.0000 </r>
       <r>   -6.6355    1.0000 </r>
       <r>   -6.5716    1.0000 </r>
       <r>    7.5519    1.0000 </r>
       <r>    7.5519    1.0000 </r>
       <r>    7.5601    1.0000 </r>
       <r>    7.9304    1.0000 </r>
       <r>    8.2033    1.0000 </r>
       <r>    8.7365    1.0000 </r>
       <r>    8.7365    1.0000 </r>
       <r>    9.0755    1.0000 </r>
       <r>    9.6664   -0.0141 </r>
       <r>    9.8695   -0.0000 </r>
       <r>    9.8695   -0.0000 </r>
       <r>    9.9265   -0.0000 </r>
       <r>    9.9555   -0.0000 </r>
       <r>    9.9690   -0.0000 </r>
      </set>
      <set comment="kpoint 13">
       <r>  -24.9762    1.0000 </r>
       <r>  -24.8315    1.0000 </r>
       <r>  -24.6000    1.0000 </r>
       <r>  -24.6000    1.0000 </r>
       <r>   -8.6748    1.0000 </r>
       <r>   -8.6748    1.0000 </r>
       <r>   -8.3888    1.0000 </r>
       <r>   -8.0695    1.0000 </r>
       <r>   -8.0695    1.0000 </r>
       <r>   -7.9670    1.0000 </r>
       <r>   -7.3137    1.0000 </r>
       <r>   -7.3137    1.0000 </r>
       <r>   -7.1256    1.0000 </r>
       <r>   -7.0416    1.0000 </r>
       <r>   -6.8320    1.0000 </r>
       <r>   -6.8061    1.0000 </r>
       <r>    8.0564    1.0000 </r>
       <r>    8.1991    1.0000 </r>
       <r>    8.1991    1.0000 </r>
       <r>    8.2803    1.0000 </r>
       <r>    8.6248    1.0000 </r>
       <r>    9.0272    1.0000 </r>
       <r>    9.3167    1.0190 </r>
       <r>    9.3167    1.0190 </r>
       <r>    9.5274    0.1788 </r>
       <r>    9.6867   -0.0077 </r>
       <r>    9.6867   -0.0077 </r>
       <r>    9.7521   -0.0005 </r>
       <r>    9.8991   -0.0000 </r>
       <r>    9.8991   -0.0000 </r>
      </set>
      <set comment="kpoint 14">
       <r>  -25.0284    1.0000 </r>
       <r>  -24.6810    1.0000 </r>
       <r>  -24.6810    1.0000 </r>
       <r>  -24.6143    1.0000 </r>
       <r>   -8.7906    1.0000 </r>
       <r>   -8.7668    1.0000 </r>
       <r>   -8.7668    1.0000 </r>
       <r>   -7.9856    1.0000 </r>
       <r>   -7.9103    1.0000 </r>
       <r>   -7.5807    1.0000 </r>
       <r>   -7.5807    1.0000 </r>
       <r>   -7.1601    1.0000 </r>
       <r>   -7.1601    1.0000 </r>
       <r>   -7.1550    1.0000 </r>
       <r>   -6.7588    1.0000 </r>
       <r>   -6.5565    1.0000 </r>
       <r>    7.6970    1.0000 </r>
       <r>    7.9346    1.0000 </r>
       <r>    7.9346    1.0000 </r>
       <r>    8.0438    1.0000 </r>
       <r>    8.8578    1.0000 </r>
       <r>    8.8578    1.0000 </r>
       <r>    9.3603    1.0353 </r>
       <r>    9.4255    0.9210 </r>
       <r>    9.6153   -0.0347 </r>
       <r>    9.7124   -0.0031 </r>
       <r>    9.7124   -0.0031 </r>
       <r>    9.7882   -0.0001 </r>
       <r>    9.9496   -0.0000 </r>
       <r>    9.9829   -0.0000 </r>
      </set>
      <set comment="kpoint 15">
       <r>  -24.9187    1.0000 </r>
       <r>  -24.7947    1.0000 </r>
       <r>  -24.6582    1.0000 </r>
       <r>  -24.6343    1.0000 </r>
       <r>   -8.8091    1.0000 </r>
       <r>   -8.8091    1.0000 </r>
       <r>   -8.6066    1.0000 </r>
       <r>   -8.3082    1.0000 </r>
       <r>   -7.9242    1.0000 </r>
       <r>   -7.7603    1.0000 </r>
       <r>   -7.2543    1.0000 </r>
       <r>   -7.1029    1.0000 </r>
       <r>   -7.0879    1.0000 </r>
       <r>   -6.9781    1.0000 </r>
       <r>   -6.9267    1.0000 </r>
       <r>   -6.6863    1.0000 </r>
       <r>    8.1844    1.0000 </r>
       <r>    8.2510    1.0000 </r>
       <r>    8.2836    1.0000 </r>
       <r>    8.5255    1.0000 </r>
       <r>    8.9869    1.0000 </r>
       <r>    9.0724    1.0000 </r>
       <r>    9.3774    1.0317 </r>
       <r>    9.3824    1.0282 </r>
       <r>    9.5228    0.2086 </r>
       <r>    9.5724   -0.0053 </r>
       <r>    9.7139   -0.0029 </r>
       <r>    9.8294   -0.0000 </r>
       <r>    9.9588   -0.0000 </r>
       <r>   10.0008   -0.0000 </r>
      </set>
      <set comment="kpoint 16">
       <r>  -24.8354    1.0000 </r>
       <r>  -24.7422    1.0000 </r>
       <r>  -24.7422    1.0000 </r>
       <r>  -24.6849    1.0000 </r>
       <r>   -8.8611    1.0000 </r>
       <r>   -8.7879    1.0000 </r>
       <r>   -8.7879    1.0000 </r>
       <r>   -8.6094    1.0000 </r>
       <r>   -7.7134    1.0000 </r>
       <r>   -7.4740    1.0000 </r>
       <r>   -7.4740    1.0000 </r>
       <r>   -7.2071    1.0000 </r>
       <r>   -6.9116    1.0000 </r>
       <r>   -6.8569    1.0000 </r>
       <r>   -6.8569    1.0000 </r>
       <r>   -6.6951    1.0000 </r>
       <r>    8.3869    1.0000 </r>
       <r>    8.3972    1.0000 </r>
       <r>    8.6525    1.0000 </r>
       <r>    8.6525    1.0000 </r>
       <r>    8.9167    1.0000 </r>
       <r>    8.9167    1.0000 </r>
       <r>    9.2049    1.0003 </r>
       <r>    9.2066    1.0003 </r>
       <r>    9.7684   -0.0002 </r>
       <r>    9.7684   -0.0002 </r>
       <r>    9.7724   -0.0002 </r>
       <r>    9.8739   -0.0000 </r>
       <r>    9.9626   -0.0000 </r>
       <r>    9.9888   -0.0000 </r>
      </set>
      <set comment="kpoint 17">
       <r>  -24.9656    1.0000 </r>
       <r>  -24.6788    1.0000 </r>
       <r>  -24.6788    1.0000 </r>
       <r>  -24.6788    1.0000 </r>
       <r>   -8.9283    1.0000 </r>
       <r>   -8.9283    1.0000 </r>
       <r>   -8.9283    1.0000 </r>
       <r>   -8.3143    1.0000 </r>
       <r>   -7.5075    1.0000 </r>
       <r>   -7.5075    1.0000 </r>
       <r>   -7.5075    1.0000 </r>
       <r>   -7.0657    1.0000 </r>
       <r>   -7.0657    1.0000 </r>
       <r>   -7.0657    1.0000 </r>
       <r>   -6.6516    1.0000 </r>
       <r>   -6.6516    1.0000 </r>
       <r>    7.7708    1.0000 </r>
       <r>    7.9816    1.0000 </r>
       <r>    7.9816    1.0000 </r>
       <r>    7.9816    1.0000 </r>
       <r>    9.1944    1.0002 </r>
       <r>    9.1944    1.0002 </r>
       <r>    9.1944    1.0002 </r>
       <r>    9.5517    0.0547 </r>
       <r>    9.7000   -0.0049 </r>
       <r>    9.7000   -0.0049 </r>
       <r>    9.7000   -0.0049 </r>
       <r>    9.8395   -0.0000 </r>
       <r>    9.9864   -0.0000 </r>
       <r>    9.9932   -0.0000 </r>
      </set>
      <set comment="kpoint 18">
       <r>  -24.8741    1.0000 </r>
       <r>  -24.7718    1.0000 </r>
       <r>  -24.6772    1.0000 </r>
       <r>  -24.6772    1.0000 </r>
       <r>   -9.0390    1.0000 </r>
       <r>   -9.0390    1.0000 </r>
       <r>   -8.8866    1.0000 </r>
       <r>   -8.6688    1.0000 </r>
       <r>   -7.4620    1.0000 </r>
       <r>   -7.4620    1.0000 </r>
       <r>   -7.0618    1.0000 </r>
       <r>   -6.9966    1.0000 </r>
       <r>   -6.9966    1.0000 </r>
       <r>   -6.9350    1.0000 </r>
       <r>   -6.7872    1.0000 </r>
       <r>   -6.7516    1.0000 </r>
       <r>    7.8223    1.0000 </r>
       <r>    8.0427    1.0000 </r>
       <r>    8.3300    1.0000 </r>
       <r>    8.3300    1.0000 </r>
       <r>    8.9130    1.0000 </r>
       <r>    8.9130    1.0000 </r>
       <r>    9.1540    1.0000 </r>
       <r>    9.4101    0.9778 </r>
       <r>    9.7540   -0.0005 </r>
       <r>    9.8447   -0.0000 </r>
       <r>    9.8537   -0.0000 </r>
       <r>    9.8537   -0.0000 </r>
       <r>    9.9723   -0.0000 </r>
       <r>    9.9730   -0.0000 </r>
      </set>
      <set comment="kpoint 19">
       <r>  -24.8101    1.0000 </r>
       <r>  -24.7398    1.0000 </r>
       <r>  -24.7398    1.0000 </r>
       <r>  -24.7059    1.0000 </r>
       <r>   -9.1459    1.0000 </r>
       <r>   -9.0904    1.0000 </r>
       <r>   -9.0904    1.0000 </r>
       <r>   -8.9570    1.0000 </r>
       <r>   -7.2468    1.0000 </r>
       <r>   -7.1089    1.0000 </r>
       <r>   -7.1089    1.0000 </r>
       <r>   -6.9025    1.0000 </r>
       <r>   -6.8759    1.0000 </r>
       <r>   -6.8496    1.0000 </r>
       <r>   -6.8496    1.0000 </r>
       <r>   -6.7260    1.0000 </r>
       <r>    7.7434    1.0000 </r>
       <r>    7.9984    1.0000 </r>
       <r>    7.9984    1.0000 </r>
       <r>    8.1022    1.0000 </r>
       <r>    9.0076    1.0000 </r>
       <r>    9.0918    1.0000 </r>
       <r>    9.0918    1.0000 </r>
       <r>    9.3370    1.0282 </r>
       <r>    9.8931   -0.0000 </r>
       <r>    9.8933   -0.0000 </r>
       <r>    9.9183   -0.0000 </r>
       <r>    9.9441   -0.0000 </r>
       <r>    9.9634   -0.0000 </r>
       <r>    9.9692   -0.0000 </r>
      </set>
      <set comment="kpoint 20">
       <r>  -24.7748    1.0000 </r>
       <r>  -24.7377    1.0000 </r>
       <r>  -24.7377    1.0000 </r>
       <r>  -24.7377    1.0000 </r>
       <r>   -9.2692    1.0000 </r>
       <r>   -9.2692    1.0000 </r>
       <r>   -9.2692    1.0000 </r>
       <r>   -9.2007    1.0000 </r>
       <r>   -6.8968    1.0000 </r>
       <r>   -6.8968    1.0000 </r>
       <r>   -6.8968    1.0000 </r>
       <r>   -6.8258    1.0000 </r>
       <r>   -6.8258    1.0000 </r>
       <r>   -6.8258    1.0000 </r>
       <r>   -6.7723    1.0000 </r>
       <r>   -6.7723    1.0000 </r>
       <r>    7.4606    1.0000 </r>
       <r>    7.6134    1.0000 </r>
       <r>    7.6134    1.0000 </r>
       <r>    7.6134    1.0000 </r>
       <r>    9.2512    1.0022 </r>
       <r>    9.2512    1.0022 </r>
       <r>    9.2512    1.0022 </r>
       <r>    9.3899    1.0202 </r>
       <r>    9.9390   -0.0000 </r>
       <r>    9.9405   -0.0000 </r>
       <r>    9.9425   -0.0000 </r>
       <r>    9.9603   -0.0000 </r>
       <r>    9.9604   -0.0000 </r>
       <r>    9.9606   -0.0000 </r>
      </set>
     </set>
    </set>
   </array>
  </eigenvalues>
  <separator name="orbital magnetization" >
   <v name="MAGDIPOLOUT">      0.00000000      0.00000000      0.00000000</v>
  </separator>
  <dos>
   <i name="efermi">      9.48569112 </i>
   <total>
    <array>
     <dimension dim="1">gridpoints</dimension>
     <dimension dim="2">spin</dimension>
     <field>energy</field>
     <field>total</field>
     <field>integrated</field>
     <set>
      <set comment="spin 1">
       <r>   -27.0516     0.0000     0.0000 </r>
       <r>   -26.9221     0.0000     0.0000 </r>
       <r>   -26.7925     0.0000     0.0000 </r>
       <r>   -26.6630     0.0000     0.0000 </r>
       <r>   -26.5335     0.0000     0.0000 </r>
       <r>   -26.4039     0.0000     0.0000 </r>
       <r>   -26.2744     0.0000     0.0000 </r>
       <r>   -26.1449    -0.0000    -0.0000 </r>
       <r>   -26.0153    -0.0000    -0.0000 </r>
       <r>   -25.8858    -0.0000    -0.0000 </r>
       <r>   -25.7563    -0.0000    -0.0000 </r>
       <r>   -25.6267    -0.0000    -0.0000 </r>
       <r>   -25.4972    -0.0008    -0.0001 </r>
       <r>   -25.3677    -0.0337    -0.0045 </r>
       <r>   -25.2381     0.3933     0.0465 </r>
       <r>   -25.1086     2.2589     0.3391 </r>
       <r>   -24.9791     4.2263     0.8865 </r>
       <r>   -24.8495     7.0226     1.7962 </r>
       <r>   -24.7200    15.1448     3.7579 </r>
       <r>   -24.5905    25.0208     6.9989 </r>
       <r>   -24.4609     8.3396     8.0791 </r>
       <r>   -24.3314    -0.5971     8.0018 </r>
       <r>   -24.2019    -0.0139     8.0000 </r>
       <r>   -24.0724    -0.0000     8.0000 </r>
       <r>   -23.9428    -0.0000     8.0000 </r>
       <r>   -23.8133     0.0000     8.0000 </r>
       <r>   -23.6838     0.0000     8.0000 </r>
       <r>   -23.5542     0.0000     8.0000 </r>
       <r>   -23.4247     0.0000     8.0000 </r>
       <r>   -23.2952     0.0000     8.0000 </r>
       <r>   -23.1656     0.0000     8.0000 </r>
       <r>   -23.0361     0.0000     8.0000 </r>
       <r>   -22.9066     0.0000     8.0000 </r>
       <r>   -22.7770     0.0000     8.0000 </r>
       <r>   -22.6475     0.0000     8.0000 </r>
       <r>   -22.5180     0.0000     8.0000 </r>
       <r>   -22.3884     0.0000     8.0000 </r>
       <r>   -22.2589     0.0000     8.0000 </r>
       <r>   -22.1294     0.0000     8.0000 </r>
       <r>   -21.9998     0.0000     8.0000 </r>
       <r>   -21.8703     0.0000     8.0000 </r>
       <r>   -21.7408     0.0000     8.0000 </r>
       <r>   -21.6112     0.0000     8.0000 </r>
       <r>   -21.4817     0.0000     8.0000 </r>
       <r>   -21.3522     0.0000     8.0000 </r>
       <r>   -21.2226     0.0000     8.0000 </r>
       <r>   -21.0931     0.0000     8.0000 </r>
       <r>   -20.9636     0.0000     8.0000 </r>
       <r>   -20.8340     0.0000     8.0000 </r>
       <r>   -20.7045     0.0000     8.0000 </r>
       <r>   -20.5750     0.0000     8.0000 </r>
       <r>   -20.4454     0.0000     8.0000 </r>
       <r>   -20.3159     0.0000     8.0000 </r>
       <r>   -20.1864     0.0000     8.0000 </r>
       <r>   -20.0569     0.0000     8.0000 </r>
       <r>   -19.9273     0.0000     8.0000 </r>
       <r>   -19.7978     0.0000     8.0000 </r>
       <r>   -19.6683     0.0000     8.0000 </r>
       <r>   -19.5387     0.0000     8.0000 </r>
       <r>   -19.4092     0.0000     8.0000 </r>
       <r>   -19.2797     0.0000     8.0000 </r>
       <r>   -19.1501     0.0000     8.0000 </r>
       <r>   -19.0206     0.0000     8.0000 </r>
       <r>   -18.8911     0.0000     8.0000 </r>
       <r>   -18.7615     0.0000     8.0000 </r>
       <r>   -18.6320     0.0000     8.0000 </r>
       <r>   -18.5025     0.0000     8.0000 </r>
       <r>   -18.3729     0.0000     8.0000 </r>
       <r>   -18.2434     0.0000     8.0000 </r>
       <r>   -18.1139     0.0000     8.0000 </r>
       <r>   -17.9843     0.0000     8.0000 </r>
       <r>   -17.8548     0.0000     8.0000 </r>
       <r>   -17.7253     0.0000     8.0000 </r>
       <r>   -17.5957     0.0000     8.0000 </r>
       <r>   -17.4662     0.0000     8.0000 </r>
       <r>   -17.3367     0.0000     8.0000 </r>
       <r>   -17.2071     0.0000     8.0000 </r>
       <r>   -17.0776     0.0000     8.0000 </r>
       <r>   -16.9481     0.0000     8.0000 </r>
       <r>   -16.8185     0.0000     8.0000 </r>
       <r>   -16.6890     0.0000     8.0000 </r>
       <r>   -16.5595     0.0000     8.0000 </r>
       <r>   -16.4299     0.0000     8.0000 </r>
       <r>   -16.3004     0.0000     8.0000 </r>
       <r>   -16.1709     0.0000     8.0000 </r>
       <r>   -16.0414     0.0000     8.0000 </r>
       <r>   -15.9118     0.0000     8.0000 </r>
       <r>   -15.7823     0.0000     8.0000 </r>
       <r>   -15.6528     0.0000     8.0000 </r>
       <r>   -15.5232     0.0000     8.0000 </r>
       <r>   -15.3937     0.0000     8.0000 </r>
       <r>   -15.2642     0.0000     8.0000 </r>
       <r>   -15.1346     0.0000     8.0000 </r>
       <r>   -15.0051     0.0000     8.0000 </r>
       <r>   -14.8756     0.0000     8.0000 </r>
       <r>   -14.7460     0.0000     8.0000 </r>
       <r>   -14.6165     0.0000     8.0000 </r>
       <r>   -14.4870     0.0000     8.0000 </r>
       <r>   -14.3574     0.0000     8.0000 </r>
       <r>   -14.2279     0.0000     8.0000 </r>
       <r>   -14.0984     0.0000     8.0000 </r>
       <r>   -13.9688     0.0000     8.0000 </r>
       <r>   -13.8393     0.0000     8.0000 </r>
       <r>   -13.7098     0.0000     8.0000 </r>
       <r>   -13.5802     0.0000     8.0000 </r>
       <r>   -13.4507     0.0000     8.0000 </r>
       <r>   -13.3212     0.0000     8.0000 </r>
       <r>   -13.1916     0.0000     8.0000 </r>
       <r>   -13.0621     0.0000     8.0000 </r>
       <r>   -12.9326     0.0000     8.0000 </r>
       <r>   -12.8030     0.0000     8.0000 </r>
       <r>   -12.6735     0.0000     8.0000 </r>
       <r>   -12.5440     0.0000     8.0000 </r>
       <r>   -12.4144     0.0000     8.0000 </r>
       <r>   -12.2849     0.0000     8.0000 </r>
       <r>   -12.1554     0.0000     8.0000 </r>
       <r>   -12.0259     0.0000     8.0000 </r>
       <r>   -11.8963     0.0000     8.0000 </r>
       <r>   -11.7668     0.0000     8.0000 </r>
       <r>   -11.6373     0.0000     8.0000 </r>
       <r>   -11.5077     0.0000     8.0000 </r>
       <r>   -11.3782     0.0000     8.0000 </r>
       <r>   -11.2487     0.0000     8.0000 </r>
       <r>   -11.1191     0.0000     8.0000 </r>
       <r>   -10.9896     0.0000     8.0000 </r>
       <r>   -10.8601     0.0000     8.0000 </r>
       <r>   -10.7305     0.0000     8.0000 </r>
       <r>   -10.6010     0.0000     8.0000 </r>
       <r>   -10.4715     0.0000     8.0000 </r>
       <r>   -10.3419     0.0000     8.0000 </r>
       <r>   -10.2124     0.0000     8.0000 </r>
       <r>   -10.0829    -0.0000     8.0000 </r>
       <r>    -9.9533    -0.0000     8.0000 </r>
       <r>    -9.8238    -0.0000     8.0000 </r>
       <r>    -9.6943    -0.0000     8.0000 </r>
       <r>    -9.5647    -0.0001     8.0000 </r>
       <r>    -9.4352    -0.0228     7.9970 </r>
       <r>    -9.3057     0.2043     8.0235 </r>
       <r>    -9.1761     1.3391     8.1970 </r>
       <r>    -9.0466     4.0226     8.7180 </r>
       <r>    -8.9171     5.5474     9.4366 </r>
       <r>    -8.7875    11.7342    10.9565 </r>
       <r>    -8.6580    12.5871    12.5870 </r>
       <r>    -8.5285     9.0762    13.7626 </r>
       <r>    -8.3989     3.5493    14.2224 </r>
       <r>    -8.2694     5.9696    14.9956 </r>
       <r>    -8.1399     2.7739    15.3550 </r>
       <r>    -8.0103     5.2601    16.0363 </r>
       <r>    -7.8808     7.1838    16.9668 </r>
       <r>    -7.7513     5.6872    17.7035 </r>
       <r>    -7.6218     5.9236    18.4708 </r>
       <r>    -7.4922     8.0312    19.5111 </r>
       <r>    -7.3627    13.9004    21.3117 </r>
       <r>    -7.2332    11.6546    22.8213 </r>
       <r>    -7.1036    15.2777    24.8003 </r>
       <r>    -6.9741    13.2626    26.5182 </r>
       <r>    -6.8446    15.7390    28.5569 </r>
       <r>    -6.7150    12.6429    30.1946 </r>
       <r>    -6.5855     8.5206    31.2983 </r>
       <r>    -6.4560     4.7884    31.9185 </r>
       <r>    -6.3264     0.6955    32.0086 </r>
       <r>    -6.1969    -0.0652    32.0002 </r>
       <r>    -6.0674    -0.0014    32.0000 </r>
       <r>    -5.9378    -0.0000    32.0000 </r>
       <r>    -5.8083    -0.0000    32.0000 </r>
       <r>    -5.6788     0.0000    32.0000 </r>
       <r>    -5.5492     0.0000    32.0000 </r>
       <r>    -5.4197     0.0000    32.0000 </r>
       <r>    -5.2902     0.0000    32.0000 </r>
       <r>    -5.1606     0.0000    32.0000 </r>
       <r>    -5.0311     0.0000    32.0000 </r>
       <r>    -4.9016     0.0000    32.0000 </r>
       <r>    -4.7720     0.0000    32.0000 </r>
       <r>    -4.6425     0.0000    32.0000 </r>
       <r>    -4.5130     0.0000    32.0000 </r>
       <r>    -4.3834     0.0000    32.0000 </r>
       <r>    -4.2539     0.0000    32.0000 </r>
       <r>    -4.1244     0.0000    32.0000 </r>
       <r>    -3.9948     0.0000    32.0000 </r>
       <r>    -3.8653     0.0000    32.0000 </r>
       <r>    -3.7358     0.0000    32.0000 </r>
       <r>    -3.6063     0.0000    32.0000 </r>
       <r>    -3.4767     0.0000    32.0000 </r>
       <r>    -3.3472     0.0000    32.0000 </r>
       <r>    -3.2177     0.0000    32.0000 </r>
       <r>    -3.0881     0.0000    32.0000 </r>
       <r>    -2.9586     0.0000    32.0000 </r>
       <r>    -2.8291     0.0000    32.0000 </r>
       <r>    -2.6995     0.0000    32.0000 </r>
       <r>    -2.5700     0.0000    32.0000 </r>
       <r>    -2.4405     0.0000    32.0000 </r>
       <r>    -2.3109     0.0000    32.0000 </r>
       <r>    -2.1814     0.0000    32.0000 </r>
       <r>    -2.0519     0.0000    32.0000 </r>
       <r>    -1.9223     0.0000    32.0000 </r>
       <r>    -1.7928     0.0000    32.0000 </r>
       <r>    -1.6633     0.0000    32.0000 </r>
       <r>    -1.5337     0.0000    32.0000 </r>
       <r>    -1.4042     0.0000    32.0000 </r>
       <r>    -1.2747     0.0000    32.0000 </r>
       <r>    -1.1451     0.0000    32.0000 </r>
       <r>    -1.0156     0.0000    32.0000 </r>
       <r>    -0.8861     0.0000    32.0000 </r>
       <r>    -0.7565     0.0000    32.0000 </r>
       <r>    -0.6270     0.0000    32.0000 </r>
       <r>    -0.4975     0.0000    32.0000 </r>
       <r>    -0.3679     0.0000    32.0000 </r>
       <r>    -0.2384     0.0000    32.0000 </r>
       <r>    -0.1089     0.0000    32.0000 </r>
       <r>     0.0207     0.0000    32.0000 </r>
       <r>     0.1502     0.0000    32.0000 </r>
       <r>     0.2797     0.0000    32.0000 </r>
       <r>     0.4092     0.0000    32.0000 </r>
       <r>     0.5388     0.0000    32.0000 </r>
       <r>     0.6683     0.0000    32.0000 </r>
       <r>     0.7978     0.0000    32.0000 </r>
       <r>     0.9274     0.0000    32.0000 </r>
       <r>     1.0569     0.0000    32.0000 </r>
       <r>     1.1864     0.0000    32.0000 </r>
       <r>     1.3160     0.0000    32.0000 </r>
       <r>     1.4455     0.0000    32.0000 </r>
       <r>     1.5750     0.0000    32.0000 </r>
       <r>     1.7046     0.0000    32.0000 </r>
       <r>     1.8341     0.0000    32.0000 </r>
       <r>     1.9636     0.0000    32.0000 </r>
       <r>     2.0932     0.0000    32.0000 </r>
       <r>     2.2227     0.0000    32.0000 </r>
       <r>     2.3522     0.0000    32.0000 </r>
       <r>     2.4818     0.0000    32.0000 </r>
       <r>     2.6113     0.0000    32.0000 </r>
       <r>     2.7408     0.0000    32.0000 </r>
       <r>     2.8704     0.0000    32.0000 </r>
       <r>     2.9999     0.0000    32.0000 </r>
       <r>     3.1294     0.0000    32.0000 </r>
       <r>     3.2590     0.0000    32.0000 </r>
       <r>     3.3885     0.0000    32.0000 </r>
       <r>     3.5180     0.0000    32.0000 </r>
       <r>     3.6476     0.0000    32.0000 </r>
       <r>     3.7771     0.0000    32.0000 </r>
       <r>     3.9066     0.0000    32.0000 </r>
       <r>     4.0362     0.0000    32.0000 </r>
       <r>     4.1657     0.0000    32.0000 </r>
       <r>     4.2952     0.0000    32.0000 </r>
       <r>     4.4247     0.0000    32.0000 </r>
       <r>     4.5543     0.0000    32.0000 </r>
       <r>     4.6838     0.0000    32.0000 </r>
       <r>     4.8133     0.0000    32.0000 </r>
       <r>     4.9429     0.0000    32.0000 </r>
       <r>     5.0724     0.0000    32.0000 </r>
       <r>     5.2019     0.0000    32.0000 </r>
       <r>     5.3315     0.0000    32.0000 </r>
       <r>     5.4610     0.0000    32.0000 </r>
       <r>     5.5905     0.0000    32.0000 </r>
       <r>     5.7201    -0.0000    32.0000 </r>
       <r>     5.8496    -0.0000    32.0000 </r>
       <r>     5.9791    -0.0000    32.0000 </r>
       <r>     6.1087    -0.0000    32.0000 </r>
       <r>     6.2382    -0.0000    32.0000 </r>
       <r>     6.3677    -0.0003    32.0000 </r>
       <r>     6.4973    -0.0053    31.9993 </r>
       <r>     6.6268     0.1131    32.0139 </r>
       <r>     6.7563     0.1431    32.0324 </r>
       <r>     6.8859     0.6768    32.1201 </r>
       <r>     7.0154     1.3016    32.2887 </r>
       <r>     7.1449     1.4611    32.4780 </r>
       <r>     7.2745     0.9302    32.5985 </r>
       <r>     7.4040     1.1217    32.7438 </r>
       <r>     7.5335     3.9320    33.2531 </r>
       <r>     7.6631     6.5524    34.1018 </r>
       <r>     7.7926     3.0519    34.4971 </r>
       <r>     7.9221     4.6684    35.1019 </r>
       <r>     8.0517     9.3854    36.3176 </r>
       <r>     8.1812     8.9639    37.4787 </r>
       <r>     8.3107    11.8311    39.0112 </r>
       <r>     8.4403     6.4472    39.8463 </r>
       <r>     8.5698     5.4102    40.5471 </r>
       <r>     8.6993     6.3497    41.3696 </r>
       <r>     8.8288     5.3041    42.0567 </r>
       <r>     8.9584     8.8294    43.2004 </r>
       <r>     9.0879     9.2541    44.3991 </r>
       <r>     9.2174     8.7012    45.5262 </r>
       <r>     9.3470     8.6508    46.6467 </r>
       <r>     9.4765     9.8070    47.9170 </r>
       <r>     9.6060    10.4307    49.2681 </r>
       <r>     9.7356    14.7298    51.1761 </r>
       <r>     9.8651    21.8737    54.0095 </r>
       <r>     9.9946    34.8949    58.5295 </r>
       <r>    10.1242    12.2082    60.1109 </r>
       <r>    10.2537    -0.8338    60.0028 </r>
       <r>    10.3832    -0.0220    60.0000 </r>
       <r>    10.5128    -0.0000    60.0000 </r>
       <r>    10.6423    -0.0000    60.0000 </r>
       <r>    10.7718    -0.0000    60.0000 </r>
       <r>    10.9014     0.0000    60.0000 </r>
       <r>    11.0309     0.0000    60.0000 </r>
       <r>    11.1604     0.0000    60.0000 </r>
       <r>    11.2900     0.0000    60.0000 </r>
       <r>    11.4195     0.0000    60.0000 </r>
       <r>    11.5490     0.0000    60.0000 </r>
       <r>    11.6786     0.0000    60.0000 </r>
       <r>    11.8081     0.0000    60.0000 </r>
      </set>
     </set>
    </array>
   </total>
  </dos>
 </calculation>
 <structure name="finalpos" >
  <crystal>
   <varray name="basis" >
    <v>       4.72070521       0.00000000       0.00000000 </v>
    <v>       0.00000000       4.72070521       0.00000000 </v>
    <v>       0.00000000       0.00000000       4.72070521 </v>
   </varray>
   <i name="volume">    105.20118797 </i>
   <varray name="rec_basis" >
    <v>       0.21183276       0.00000000       0.00000000 </v>
    <v>       0.00000000       0.21183276       0.00000000 </v>
    <v>       0.00000000       0.00000000       0.21183276 </v>
   </varray>
  </crystal>
  <varray name="positions" >
   <v>       0.00000000       0.00000000       0.00000000 </v>
   <v>       0.00000000       0.50000000       0.50000000 </v>
   <v>       0.50000000       0.00000000       0.50000000 </v>
   <v>       0.50000000       0.50000000       0.00000000 </v>
  </varray>
 </structure>
</modeling>
