unknown system                          
           1
     4.720705    0.000000    0.000000
     0.000000    4.720705    0.000000
     0.000000    0.000000    4.720705
   Ce
     4
Direct configuration=     1
   0.00000000  0.00000000  0.00000000
   0.00000000  0.50000000  0.50000000
   0.50000000  0.00000000  0.50000000
   0.50000000  0.50000000  0.00000000
