   4   4   0   0
  0.1917292E+02  0.4248635E-09  0.4248635E-09  0.4248635E-09  0.5000000E-15
  1.000000000000000E-004
  CAR 
 unknown system                          
     16.36093712    -23.87198509  301     13.78924180      1.00000000
    -23.872  0.0000E+00  0.0000E+00
    -23.738  0.0000E+00  0.0000E+00
    -23.604  0.0000E+00  0.0000E+00
    -23.470  0.0000E+00  0.0000E+00
    -23.336  0.0000E+00  0.0000E+00
    -23.201  0.0000E+00  0.0000E+00
    -23.067  0.0000E+00  0.0000E+00
    -22.933 -0.2908E-35 -0.3899E-36
    -22.799 -0.9526E-26 -0.1278E-26
    -22.665 -0.8292E-18 -0.1112E-18
    -22.531 -0.1819E-11 -0.2440E-12
    -22.397 -0.1052E-06 -0.1411E-07
    -22.263 -0.1607E-03 -0.2157E-04
    -22.129 -0.6815E-02 -0.9356E-03
    -21.994  0.9424E-01  0.1170E-01
    -21.860  0.5227E+00  0.8180E-01
    -21.726  0.8466E+00  0.1953E+00
    -21.592  0.1010E+01  0.3308E+00
    -21.458  0.1382E+01  0.5161E+00
    -21.324  0.1656E+01  0.7382E+00
    -21.190  0.1801E+01  0.9798E+00
    -21.056  0.2233E+01  0.1279E+01
    -20.922  0.3183E+01  0.1706E+01
    -20.787  0.2554E+01  0.2049E+01
    -20.653  0.4477E+01  0.2649E+01
    -20.519  0.6361E+01  0.3502E+01
    -20.385  0.6604E+01  0.4388E+01
    -20.251  0.9285E+01  0.5633E+01
    -20.117  0.8240E+01  0.6738E+01
    -19.983  0.8987E+01  0.7943E+01
    -19.849  0.4979E+00  0.8010E+01
    -19.715 -0.7468E-01  0.8000E+01
    -19.580 -0.2596E-03  0.8000E+01
    -19.446 -0.2051E-07  0.8000E+01
    -19.312 -0.4206E-13  0.8000E+01
    -19.178  0.0000E+00  0.8000E+01
    -19.044  0.0000E+00  0.8000E+01
    -18.910  0.0000E+00  0.8000E+01
    -18.776  0.0000E+00  0.8000E+01
    -18.642  0.0000E+00  0.8000E+01
    -18.508  0.0000E+00  0.8000E+01
    -18.373  0.0000E+00  0.8000E+01
    -18.239  0.0000E+00  0.8000E+01
    -18.105  0.0000E+00  0.8000E+01
    -17.971  0.0000E+00  0.8000E+01
    -17.837  0.0000E+00  0.8000E+01
    -17.703  0.0000E+00  0.8000E+01
    -17.569  0.0000E+00  0.8000E+01
    -17.435  0.0000E+00  0.8000E+01
    -17.301  0.0000E+00  0.8000E+01
    -17.166  0.0000E+00  0.8000E+01
    -17.032  0.0000E+00  0.8000E+01
    -16.898  0.0000E+00  0.8000E+01
    -16.764  0.0000E+00  0.8000E+01
    -16.630  0.0000E+00  0.8000E+01
    -16.496  0.0000E+00  0.8000E+01
    -16.362  0.0000E+00  0.8000E+01
    -16.228  0.0000E+00  0.8000E+01
    -16.094  0.0000E+00  0.8000E+01
    -15.960  0.0000E+00  0.8000E+01
    -15.825  0.0000E+00  0.8000E+01
    -15.691  0.0000E+00  0.8000E+01
    -15.557  0.0000E+00  0.8000E+01
    -15.423  0.0000E+00  0.8000E+01
    -15.289  0.0000E+00  0.8000E+01
    -15.155  0.0000E+00  0.8000E+01
    -15.021  0.0000E+00  0.8000E+01
    -14.887  0.0000E+00  0.8000E+01
    -14.753  0.0000E+00  0.8000E+01
    -14.618  0.0000E+00  0.8000E+01
    -14.484  0.0000E+00  0.8000E+01
    -14.350  0.0000E+00  0.8000E+01
    -14.216  0.0000E+00  0.8000E+01
    -14.082  0.0000E+00  0.8000E+01
    -13.948  0.0000E+00  0.8000E+01
    -13.814  0.0000E+00  0.8000E+01
    -13.680  0.0000E+00  0.8000E+01
    -13.546  0.0000E+00  0.8000E+01
    -13.411  0.0000E+00  0.8000E+01
    -13.277  0.0000E+00  0.8000E+01
    -13.143  0.0000E+00  0.8000E+01
    -13.009  0.0000E+00  0.8000E+01
    -12.875  0.0000E+00  0.8000E+01
    -12.741  0.0000E+00  0.8000E+01
    -12.607  0.0000E+00  0.8000E+01
    -12.473  0.0000E+00  0.8000E+01
    -12.339  0.0000E+00  0.8000E+01
    -12.204  0.0000E+00  0.8000E+01
    -12.070  0.0000E+00  0.8000E+01
    -11.936  0.0000E+00  0.8000E+01
    -11.802  0.0000E+00  0.8000E+01
    -11.668  0.0000E+00  0.8000E+01
    -11.534  0.0000E+00  0.8000E+01
    -11.400  0.0000E+00  0.8000E+01
    -11.266  0.0000E+00  0.8000E+01
    -11.132  0.0000E+00  0.8000E+01
    -10.997  0.0000E+00  0.8000E+01
    -10.863  0.0000E+00  0.8000E+01
    -10.729  0.0000E+00  0.8000E+01
    -10.595  0.0000E+00  0.8000E+01
    -10.461  0.0000E+00  0.8000E+01
    -10.327  0.0000E+00  0.8000E+01
    -10.193  0.0000E+00  0.8000E+01
    -10.059  0.0000E+00  0.8000E+01
     -9.925  0.0000E+00  0.8000E+01
     -9.790  0.0000E+00  0.8000E+01
     -9.656  0.0000E+00  0.8000E+01
     -9.522  0.0000E+00  0.8000E+01
     -9.388  0.0000E+00  0.8000E+01
     -9.254  0.0000E+00  0.8000E+01
     -9.120  0.0000E+00  0.8000E+01
     -8.986  0.0000E+00  0.8000E+01
     -8.852  0.0000E+00  0.8000E+01
     -8.718  0.0000E+00  0.8000E+01
     -8.583  0.0000E+00  0.8000E+01
     -8.449  0.0000E+00  0.8000E+01
     -8.315  0.0000E+00  0.8000E+01
     -8.181  0.0000E+00  0.8000E+01
     -8.047  0.0000E+00  0.8000E+01
     -7.913 -0.8841E-35  0.8000E+01
     -7.779 -0.3020E-25  0.8000E+01
     -7.645 -0.2737E-17  0.8000E+01
     -7.511 -0.6220E-11  0.8000E+01
     -7.376 -0.3597E-06  0.8000E+01
     -7.242 -0.4470E-03  0.8000E+01
     -7.108 -0.2622E-02  0.8000E+01
     -6.974  0.6242E-01  0.8008E+01
     -6.840  0.9973E+00  0.8142E+01
     -6.706  0.8816E+00  0.8260E+01
     -6.572  0.1434E+01  0.8452E+01
     -6.438  0.2543E+01  0.8793E+01
     -6.304  0.3485E+01  0.9261E+01
     -6.169  0.3013E+01  0.9665E+01
     -6.035  0.5257E+01  0.1037E+02
     -5.901  0.7526E+01  0.1138E+02
     -5.767  0.7336E+01  0.1236E+02
     -5.633  0.3943E+01  0.1289E+02
     -5.499  0.5140E+01  0.1358E+02
     -5.365  0.1828E+01  0.1383E+02
     -5.231  0.2256E+01  0.1413E+02
     -5.097  0.2300E+01  0.1444E+02
     -4.963  0.3377E+01  0.1489E+02
     -4.828  0.1578E+01  0.1510E+02
     -4.694  0.1536E+01  0.1531E+02
     -4.560  0.2328E+01  0.1562E+02
     -4.426  0.4083E+01  0.1617E+02
     -4.292  0.4360E+01  0.1675E+02
     -4.158  0.2145E+01  0.1704E+02
     -4.024  0.1977E+01  0.1731E+02
     -3.890  0.3134E+01  0.1773E+02
     -3.756  0.2292E+01  0.1803E+02
     -3.621  0.5580E+01  0.1878E+02
     -3.487  0.2581E+01  0.1913E+02
     -3.353  0.4662E+01  0.1975E+02
     -3.219  0.4779E+01  0.2039E+02
     -3.085  0.6404E+01  0.2125E+02
     -2.951  0.5879E+01  0.2204E+02
     -2.817  0.6799E+01  0.2295E+02
     -2.683  0.6672E+01  0.2385E+02
     -2.549  0.5291E+01  0.2456E+02
     -2.414  0.6159E+01  0.2538E+02
     -2.280  0.6358E+01  0.2624E+02
     -2.146  0.7011E+01  0.2718E+02
     -2.012  0.6755E+01  0.2808E+02
     -1.878  0.5058E+01  0.2876E+02
     -1.744  0.7336E+01  0.2974E+02
     -1.610  0.5195E+01  0.3044E+02
     -1.476  0.2936E+01  0.3083E+02
     -1.342  0.4047E+01  0.3138E+02
     -1.207  0.2018E+01  0.3165E+02
     -1.073  0.2119E+01  0.3193E+02
     -0.939  0.5179E+00  0.3200E+02
     -0.805 -0.5848E-02  0.3200E+02
     -0.671 -0.2594E-02  0.3200E+02
     -0.537 -0.3542E-05  0.3200E+02
     -0.403 -0.1178E-09  0.3200E+02
     -0.269 -0.9701E-16  0.3200E+02
     -0.135  0.0000E+00  0.3200E+02
     -0.000  0.0000E+00  0.3200E+02
      0.134  0.0000E+00  0.3200E+02
      0.268  0.0000E+00  0.3200E+02
      0.402  0.0000E+00  0.3200E+02
      0.536  0.0000E+00  0.3200E+02
      0.670  0.0000E+00  0.3200E+02
      0.804  0.0000E+00  0.3200E+02
      0.938  0.0000E+00  0.3200E+02
      1.072  0.0000E+00  0.3200E+02
      1.207  0.0000E+00  0.3200E+02
      1.341  0.0000E+00  0.3200E+02
      1.475  0.0000E+00  0.3200E+02
      1.609  0.0000E+00  0.3200E+02
      1.743  0.0000E+00  0.3200E+02
      1.877  0.0000E+00  0.3200E+02
      2.011  0.0000E+00  0.3200E+02
      2.145  0.0000E+00  0.3200E+02
      2.279  0.0000E+00  0.3200E+02
      2.414  0.0000E+00  0.3200E+02
      2.548  0.0000E+00  0.3200E+02
      2.682  0.0000E+00  0.3200E+02
      2.816  0.0000E+00  0.3200E+02
      2.950  0.0000E+00  0.3200E+02
      3.084  0.0000E+00  0.3200E+02
      3.218  0.0000E+00  0.3200E+02
      3.352  0.0000E+00  0.3200E+02
      3.486  0.0000E+00  0.3200E+02
      3.621  0.0000E+00  0.3200E+02
      3.755  0.0000E+00  0.3200E+02
      3.889  0.0000E+00  0.3200E+02
      4.023  0.0000E+00  0.3200E+02
      4.157  0.0000E+00  0.3200E+02
      4.291  0.0000E+00  0.3200E+02
      4.425  0.0000E+00  0.3200E+02
      4.559  0.0000E+00  0.3200E+02
      4.693  0.0000E+00  0.3200E+02
      4.827  0.0000E+00  0.3200E+02
      4.962  0.0000E+00  0.3200E+02
      5.096  0.0000E+00  0.3200E+02
      5.230  0.0000E+00  0.3200E+02
      5.364  0.0000E+00  0.3200E+02
      5.498  0.0000E+00  0.3200E+02
      5.632  0.0000E+00  0.3200E+02
      5.766  0.0000E+00  0.3200E+02
      5.900  0.0000E+00  0.3200E+02
      6.034  0.0000E+00  0.3200E+02
      6.169  0.0000E+00  0.3200E+02
      6.303  0.0000E+00  0.3200E+02
      6.437  0.0000E+00  0.3200E+02
      6.571  0.0000E+00  0.3200E+02
      6.705  0.0000E+00  0.3200E+02
      6.839  0.0000E+00  0.3200E+02
      6.973  0.0000E+00  0.3200E+02
      7.107  0.0000E+00  0.3200E+02
      7.241  0.0000E+00  0.3200E+02
      7.376  0.0000E+00  0.3200E+02
      7.510  0.0000E+00  0.3200E+02
      7.644  0.0000E+00  0.3200E+02
      7.778  0.0000E+00  0.3200E+02
      7.912  0.0000E+00  0.3200E+02
      8.046  0.0000E+00  0.3200E+02
      8.180  0.0000E+00  0.3200E+02
      8.314 -0.1854E-33  0.3200E+02
      8.448 -0.3789E-24  0.3200E+02
      8.583 -0.2052E-16  0.3200E+02
      8.717 -0.2767E-10  0.3200E+02
      8.851 -0.9409E-06  0.3200E+02
      8.985 -0.6537E-03  0.3200E+02
      9.119  0.4716E-02  0.3200E+02
      9.253  0.7166E-01  0.3201E+02
      9.387  0.9125E-01  0.3202E+02
      9.521  0.4302E+00  0.3208E+02
      9.655  0.6399E+00  0.3217E+02
      9.790  0.1119E+01  0.3232E+02
      9.924  0.2418E+00  0.3235E+02
     10.058  0.4000E+00  0.3240E+02
     10.192  0.1997E+01  0.3267E+02
     10.326  0.3666E+01  0.3316E+02
     10.460  0.7213E+00  0.3326E+02
     10.594  0.1138E+01  0.3341E+02
     10.728  0.2147E+01  0.3370E+02
     10.862  0.2804E+01  0.3407E+02
     10.997  0.2932E+01  0.3447E+02
     11.131  0.3380E+01  0.3492E+02
     11.265  0.3647E+01  0.3541E+02
     11.399  0.4606E+01  0.3603E+02
     11.533  0.4141E+01  0.3658E+02
     11.667  0.3982E+01  0.3712E+02
     11.801  0.9617E+01  0.3841E+02
     11.935  0.6967E+01  0.3934E+02
     12.069  0.6806E+01  0.4025E+02
     12.204  0.4217E+01  0.4082E+02
     12.338  0.2188E+01  0.4111E+02
     12.472  0.4675E+01  0.4174E+02
     12.606  0.5651E+01  0.4250E+02
     12.740  0.4014E+01  0.4304E+02
     12.874  0.6809E+01  0.4395E+02
     13.008  0.5906E+01  0.4474E+02
     13.142  0.5730E+01  0.4551E+02
     13.276  0.3979E+01  0.4604E+02
     13.411  0.5622E+01  0.4680E+02
     13.545  0.1829E+01  0.4704E+02
     13.679  0.3034E+01  0.4745E+02
     13.813  0.5797E+01  0.4823E+02
     13.947  0.1426E+02  0.5014E+02
     14.081  0.1611E+02  0.5230E+02
     14.215  0.1873E+02  0.5481E+02
     14.349  0.2898E+02  0.5870E+02
     14.483  0.9600E+01  0.5999E+02
     14.618  0.1488E+00  0.6001E+02
     14.752 -0.5095E-01  0.6000E+02
     14.886 -0.9094E-03  0.6000E+02
     15.020 -0.6197E-06  0.6000E+02
     15.154 -0.1088E-10  0.6000E+02
     15.288  0.0000E+00  0.6000E+02
     15.422  0.0000E+00  0.6000E+02
     15.556  0.0000E+00  0.6000E+02
     15.690  0.0000E+00  0.6000E+02
     15.824  0.0000E+00  0.6000E+02
     15.959  0.0000E+00  0.6000E+02
     16.093  0.0000E+00  0.6000E+02
     16.227  0.0000E+00  0.6000E+02
     16.361  0.0000E+00  0.6000E+02
