    4    4    1    1
  0.1917292E+02  0.4248635E-09  0.4248635E-09  0.4248635E-09  0.5000000E-15
  1.000000000000000E-004
  CAR 
 unknown system                          
     48     35     30
 
  0.0000000E+00  0.0000000E+00  0.0000000E+00  0.1953125E-02
      1        -22.043216   1.000000
      2        -20.021123   1.000000
      3        -20.021123   1.000000
      4        -20.021123   1.000000
      5         -6.560874   1.000000
      6         -6.560874   1.000000
      7         -6.560874   1.000000
      8         -3.261150   1.000000
      9         -3.261150   1.000000
     10         -3.261150   1.000000
     11         -3.261150   1.000000
     12         -3.261150   1.000000
     13         -3.261150   1.000000
     14         -0.993972   1.000000
     15         -0.993971   1.000000
     16         -0.993971   1.000000
     17          9.186898   1.000000
     18          9.186898   1.000000
     19          9.186898   1.000000
     20          9.815619   1.000000
     21          9.815619   1.000000
     22          9.815619   1.000000
     23         12.348105   1.000000
     24         12.939395   1.000000
     25         14.121421  -0.000014
     26         14.121421  -0.000014
     27         14.121421  -0.000014
     28         14.364681  -0.000000
     29         14.364682  -0.000000
     30         14.364682  -0.000000
 
  0.1250000E+00  0.0000000E+00  0.0000000E+00  0.1171875E-01
      1        -21.979509   1.000000
      2        -20.116066   1.000000
      3        -20.018190   1.000000
      4        -20.018190   1.000000
      5         -6.467870   1.000000
      6         -6.467870   1.000000
      7         -6.372977   1.000000
      8         -3.442049   1.000000
      9         -3.442049   1.000000
     10         -3.319110   1.000000
     11         -3.319110   1.000000
     12         -3.189702   1.000000
     13         -3.189702   1.000000
     14         -1.272425   1.000000
     15         -1.100782   1.000000
     16         -1.100782   1.000000
     17          9.382554   1.000000
     18          9.486343   1.000000
     19          9.486343   1.000000
     20          9.902565   1.000000
     21         10.172630   1.000000
     22         10.172630   1.000000
     23         12.724180   1.000000
     24         12.764555   1.000000
     25         14.029574  -0.001764
     26         14.152454  -0.000002
     27         14.152454  -0.000002
     28         14.350702  -0.000000
     29         14.350702  -0.000000
     30         14.395174  -0.000000
 
  0.2500000E+00  0.0000000E+00  0.0000000E+00  0.1171875E-01
      1        -21.793549   1.000000
      2        -20.376502   1.000000
      3        -20.011969   1.000000
      4        -20.011969   1.000000
      5         -6.194128   1.000000
      6         -6.194128   1.000000
      7         -5.838390   1.000000
      8         -3.917445   1.000000
      9         -3.917445   1.000000
     10         -3.454821   1.000000
     11         -3.454821   1.000000
     12         -2.981510   1.000000
     13         -2.981510   1.000000
     14         -2.006841   1.000000
     15         -1.392890   1.000000
     16         -1.392889   1.000000
     17          9.952045   1.000000
     18         10.158808   1.000000
     19         10.301503   1.000000
     20         10.301503   1.000000
     21         11.143832   1.000000
     22         11.143832   1.000000
     23         12.308573   1.000000
     24         13.411327   1.000001
     25         13.982549  -0.009865
     26         14.242912  -0.000000
     27         14.242917  -0.000000
     28         14.281905  -0.000000
     29         14.281928  -0.000000
     30         14.477563  -0.000000
 
  0.3750000E+00  0.0000000E+00  0.0000000E+00  0.1171875E-01
      1        -21.502596   1.000000
      2        -20.740473   1.000000
      3        -20.005944   1.000000
      4        -20.005944   1.000000
      5         -5.756452   1.000000
      6         -5.756452   1.000000
      7         -5.030767   1.000000
      8         -4.543676   1.000000
      9         -4.543676   1.000000
     10         -3.584692   1.000000
     11         -3.584692   1.000000
     12         -2.992361   1.000000
     13         -2.655370   1.000000
     14         -2.655370   1.000000
     15         -1.800902   1.000000
     16         -1.800902   1.000000
     17         10.569310   1.000000
     18         10.833575   1.000000
     19         11.362467   1.000000
     20         11.362467   1.000000
     21         11.713004   1.000000
     22         12.436798   1.000000
     23         12.436798   1.000000
     24         12.873068   1.000000
     25         14.068876  -0.000279
     26         14.068876  -0.000279
     27         14.141658  -0.000004
     28         14.141658  -0.000004
     29         14.379467  -0.000000
     30         14.379472  -0.000000
 
  0.5000000E+00  0.0000000E+00  0.0000000E+00  0.5859375E-02
      1        -21.136532   1.000000
      2        -21.136532   1.000000
      3        -20.003464   1.000000
      4        -20.003464   1.000000
      5         -5.187403   1.000000
      6         -5.187403   1.000000
      7         -5.187403   1.000000
      8         -5.187403   1.000000
      9         -4.045740   1.000000
     10         -4.045740   1.000000
     11         -3.636946   1.000000
     12         -3.636946   1.000000
     13         -2.244842   1.000000
     14         -2.244842   1.000000
     15         -2.244842   1.000000
     16         -2.244842   1.000000
     17         11.104644   1.000000
     18         11.104644   1.000000
     19         11.889857   1.000000
     20         11.889857   1.000000
     21         11.989074   1.000000
     22         11.989074   1.000000
     23         13.524066   1.000572
     24         13.524066   1.000572
     25         13.524066   1.000572
     26         13.524066   1.000572
     27         13.856148   0.051395
     28         13.856148   0.051395
     29         14.532167  -0.000000
     30         14.532168  -0.000000
 
  0.1250000E+00  0.1250000E+00  0.0000000E+00  0.2343750E-01
      1        -21.917175   1.000000
      2        -20.109626   1.000000
      3        -20.109626   1.000000
      4        -20.018947   1.000000
      5         -6.375295   1.000000
      6         -6.302128   1.000000
      7         -6.302128   1.000000
      8         -3.809167   1.000000
      9         -3.368940   1.000000
     10         -3.368940   1.000000
     11         -3.231115   1.000000
     12         -3.231115   1.000000
     13         -3.139800   1.000000
     14         -1.691187   1.000000
     15         -1.212288   1.000000
     16         -1.022206   1.000000
     17          9.555159   1.000000
     18          9.675427   1.000000
     19          9.675427   1.000000
     20         10.254453   1.000000
     21         10.254453   1.000000
     22         10.702863   1.000000
     23         12.667829   1.000000
     24         13.000410   1.000000
     25         14.005998  -0.004484
     26         14.113351  -0.000023
     27         14.184906  -0.000000
     28         14.341817  -0.000000
     29         14.378119  -0.000000
     30         14.378187  -0.000000
 
  0.2500000E+00  0.1250000E+00  0.0000000E+00  0.4687500E-01
      1        -21.735434   1.000000
      2        -20.360171   1.000000
      3        -20.092233   1.000000
      4        -20.022855   1.000000
      5         -6.102859   1.000000
      6         -6.095420   1.000000
      7         -5.831625   1.000000
      8         -4.326841   1.000000
      9         -3.840272   1.000000
     10         -3.318579   1.000000
     11         -3.155627   1.000000
     12         -3.118347   1.000000
     13         -2.975570   1.000000
     14         -2.440890   1.000000
     15         -1.516465   1.000000
     16         -1.199202   1.000000
     17         10.068465   1.000000
     18         10.225746   1.000000
     19         10.469053   1.000000
     20         10.494474   1.000000
     21         11.210758   1.000000
     22         11.834511   1.000000
     23         12.361801   1.000000
     24         13.539400   1.001166
     25         13.837303   0.140738
     26         14.208808  -0.000000
     27         14.276902  -0.000000
     28         14.280876  -0.000000
     29         14.287294  -0.000000
     30         14.450760  -0.000000
 
  0.3750000E+00  0.1250000E+00  0.0000000E+00  0.4687500E-01
      1        -21.451408   1.000000
      2        -20.711279   1.000000
      3        -20.069543   1.000000
      4        -20.031977   1.000000
      5         -5.769669   1.000000
      6         -5.667368   1.000000
      7         -5.123708   1.000000
      8         -4.857633   1.000000
      9         -4.461823   1.000000
     10         -3.374099   1.000000
     11         -3.336363   1.000000
     12         -3.226411   1.000000
     13         -2.820769   1.000000
     14         -2.579824   1.000000
     15         -1.939653   1.000000
     16         -1.597821   1.000000
     17         10.874854   1.000000
     18         11.002473   1.000000
     19         11.076118   1.000000
     20         11.466573   1.000000
     21         11.888589   1.000000
     22         12.480502   1.000000
     23         13.018166   1.000000
     24         13.062025   1.000000
     25         13.929512  -0.031673
     26         14.086309  -0.000110
     27         14.171186  -0.000000
     28         14.190489  -0.000000
     29         14.250368  -0.000000
     30         14.415147  -0.000000
 
  0.5000000E+00  0.1250000E+00  0.0000000E+00  0.2343750E-01
      1        -21.095026   1.000000
      2        -21.095026   1.000000
      3        -20.048029   1.000000
      4        -20.048028   1.000000
      5         -5.348589   1.000000
      6         -5.348589   1.000000
      7         -5.101475   1.000000
      8         -5.101475   1.000000
      9         -4.262620   1.000000
     10         -4.262620   1.000000
     11         -3.340428   1.000000
     12         -3.340428   1.000000
     13         -2.398153   1.000000
     14         -2.398153   1.000000
     15         -2.094317   1.000000
     16         -2.094317   1.000000
     17         11.360254   1.000000
     18         11.360254   1.000000
     19         11.825351   1.000000
     20         11.825351   1.000000
     21         12.088122   1.000000
     22         12.088122   1.000000
     23         13.548019   1.001699
     24         13.548019   1.001699
     25         13.705866   0.998188
     26         13.705866   0.998188
     27         13.941227  -0.026758
     28         13.941227  -0.026758
     29         14.349507  -0.000000
     30         14.349509  -0.000000
 
  0.2500000E+00  0.2500000E+00  0.0000000E+00  0.2343750E-01
      1        -21.566379   1.000000
      2        -20.313919   1.000000
      3        -20.313919   1.000000
      4        -20.055207   1.000000
      5         -5.834317   1.000000
      6         -5.804657   1.000000
      7         -5.804657   1.000000
      8         -4.859466   1.000000
      9         -3.614578   1.000000
     10         -3.614578   1.000000
     11         -3.190542   1.000000
     12         -2.940685   1.000000
     13         -2.940685   1.000000
     14         -2.801071   1.000000
     15         -1.851320   1.000000
     16         -1.135890   1.000000
     17         10.151226   1.000000
     18         10.954365   1.000000
     19         10.954365   1.000000
     20         11.403340   1.000000
     21         11.403340   1.000000
     22         12.419413   1.000000
     23         12.990500   1.000000
     24         13.621605   1.019588
     25         13.797716   0.428569
     26         14.115851  -0.000020
     27         14.212623  -0.000000
     28         14.212648  -0.000000
     29         14.284537  -0.000000
     30         14.429470  -0.000000
 
  0.3750000E+00  0.2500000E+00  0.0000000E+00  0.4687500E-01
      1        -21.303655   1.000000
      2        -20.628514   1.000000
      3        -20.247609   1.000000
      4        -20.107515   1.000000
      5         -5.733081   1.000000
      6         -5.405490   1.000000
      7         -5.336870   1.000000
      8         -5.287882   1.000000
      9         -4.222015   1.000000
     10         -3.981581   1.000000
     11         -3.258846   1.000000
     12         -2.856171   1.000000
     13         -2.693706   1.000000
     14         -2.406219   1.000000
     15         -2.312514   1.000000
     16         -1.370935   1.000000
     17         10.760966   1.000000
     18         11.692521   1.000000
     19         11.694382   1.000000
     20         11.751675   1.000000
     21         12.309760   1.000000
     22         12.599845   1.000000
     23         13.242053   1.000000
     24         13.782362   0.558071
     25         13.832528   0.168974
     26         13.832985   0.166174
     27         14.071522  -0.000243
     28         14.137495  -0.000005
     29         14.308182  -0.000000
     30         14.391210  -0.000000
 
  0.5000000E+00  0.2500000E+00  0.0000000E+00  0.2343750E-01
      1        -20.976695   1.000000
      2        -20.976695   1.000000
      3        -20.174760   1.000000
      4        -20.174760   1.000000
      5         -5.574581   1.000000
      6         -5.574581   1.000000
      7         -4.849213   1.000000
      8         -4.849213   1.000000
      9         -4.716593   1.000000
     10         -4.716593   1.000000
     11         -2.807008   1.000000
     12         -2.807008   1.000000
     13         -2.746666   1.000000
     14         -2.746666   1.000000
     15         -1.836956   1.000000
     16         -1.836956   1.000000
     17         11.609810   1.000000
     18         11.609810   1.000000
     19         12.028801   1.000000
     20         12.028801   1.000000
     21         12.534895   1.000000
     22         12.534895   1.000000
     23         13.610087   1.014759
     24         13.610087   1.014759
     25         13.872764   0.001483
     26         13.872764   0.001483
     27         13.922548  -0.033904
     28         13.922548  -0.033904
     29         14.247416  -0.000000
     30         14.247420  -0.000000
 
  0.3750000E+00  0.3750000E+00  0.0000000E+00  0.2343750E-01
      1        -21.076151   1.000000
      2        -20.505472   1.000000
      3        -20.505472   1.000000
      4        -20.223092   1.000000
      5         -5.563445   1.000000
      6         -5.544514   1.000000
      7         -5.544514   1.000000
      8         -4.988091   1.000000
      9         -4.630163   1.000000
     10         -3.842318   1.000000
     11         -3.842318   1.000000
     12         -2.819591   1.000000
     13         -2.319316   1.000000
     14         -2.238350   1.000000
     15         -2.238350   1.000000
     16         -1.392709   1.000000
     17         10.996150   1.000000
     18         12.136624   1.000000
     19         12.136624   1.000000
     20         12.709165   1.000000
     21         12.753515   1.000000
     22         12.753515   1.000000
     23         12.946994   1.000000
     24         13.738527   0.873996
     25         13.738527   0.873996
     26         13.960390  -0.018050
     27         14.043139  -0.000971
     28         14.205682  -0.000000
     29         14.216476  -0.000000
     30         14.247578  -0.000000
 
  0.5000000E+00  0.3750000E+00  0.0000000E+00  0.2343750E-01
      1        -20.797053   1.000000
      2        -20.797053   1.000000
      3        -20.362774   1.000000
      4        -20.362773   1.000000
      5         -5.641815   1.000000
      6         -5.641815   1.000000
      7         -5.170340   1.000000
      8         -5.170340   1.000000
      9         -4.448279   1.000000
     10         -4.448279   1.000000
     11         -3.356571   1.000000
     12         -3.356571   1.000000
     13         -2.179540   1.000000
     14         -2.179540   1.000000
     15         -1.704344   1.000000
     16         -1.704344   1.000000
     17         11.636839   1.000000
     18         11.636839   1.000000
     19         12.535352   1.000000
     20         12.535352   1.000000
     21         12.845225   1.000000
     22         12.845225   1.000000
     23         13.658879   1.034598
     24         13.658879   1.034598
     25         13.841753   0.116421
     26         13.841753   0.116421
     27         13.980526  -0.010486
     28         13.980526  -0.010486
     29         14.298364  -0.000000
     30         14.311426  -0.000000
 
  0.5000000E+00  0.5000000E+00  0.0000000E+00  0.5859375E-02
      1        -20.581485   1.000000
      2        -20.581485   1.000000
      3        -20.581485   1.000000
      4        -20.581484   1.000000
      5         -5.500263   1.000000
      6         -5.500263   1.000000
      7         -5.500263   1.000000
      8         -5.500263   1.000000
      9         -3.932135   1.000000
     10         -3.932135   1.000000
     11         -3.932135   1.000000
     12         -3.932135   1.000000
     13         -1.809507   1.000000
     14         -1.809507   1.000000
     15         -1.809507   1.000000
     16         -1.809507   1.000000
     17         11.999412   1.000000
     18         11.999412   1.000000
     19         11.999412   1.000000
     20         11.999412   1.000000
     21         13.469468   1.000030
     22         13.469468   1.000030
     23         13.469468   1.000030
     24         13.469468   1.000030
     25         14.031768  -0.001606
     26         14.031770  -0.001606
     27         14.031869  -0.001600
     28         14.031996  -0.001591
     29         14.200491  -0.000000
     30         14.200745  -0.000000
 
  0.1250000E+00  0.1250000E+00  0.1250000E+00  0.1562500E-01
      1        -21.856274   1.000000
      2        -20.106439   1.000000
      3        -20.106439   1.000000
      4        -20.106438   1.000000
      5         -6.238346   1.000000
      6         -6.238346   1.000000
      7         -6.238346   1.000000
      8         -3.692044   1.000000
      9         -3.692044   1.000000
     10         -3.692044   1.000000
     11         -3.072031   1.000000
     12         -3.072031   1.000000
     13         -3.072031   1.000000
     14         -2.098982   1.000000
     15         -1.119918   1.000000
     16         -1.119918   1.000000
     17          9.725219   1.000000
     18          9.725219   1.000000
     19          9.725219   1.000000
     20         10.791448   1.000000
     21         10.791448   1.000000
     22         10.791448   1.000000
     23         12.446884   1.000000
     24         13.382034   1.000000
     25         13.994806  -0.006651
     26         14.143440  -0.000003
     27         14.143440  -0.000003
     28         14.367232  -0.000000
     29         14.367232  -0.000000
     30         14.367237  -0.000000
 
  0.2500000E+00  0.1250000E+00  0.1250000E+00  0.4687500E-01
      1        -21.678850   1.000000
      2        -20.346678   1.000000
      3        -20.098925   1.000000
      4        -20.098924   1.000000
      5         -6.059275   1.000000
      6         -6.059275   1.000000
      7         -5.848348   1.000000
      8         -4.145129   1.000000
      9         -4.145129   1.000000
     10         -3.354779   1.000000
     11         -3.038714   1.000000
     12         -3.038714   1.000000
     13         -2.874709   1.000000
     14         -2.851259   1.000000
     15         -1.388399   1.000000
     16         -1.244268   1.000000
     17         10.202717   1.000000
     18         10.221718   1.000000
     19         10.221718   1.000000
     20         11.065804   1.000000
     21         11.899287   1.000000
     22         11.899287   1.000000
     23         12.225933   1.000000
     24         13.736542   0.884566
     25         13.832237   0.170761
     26         14.231351  -0.000000
     27         14.248091  -0.000000
     28         14.292641  -0.000000
     29         14.292856  -0.000000
     30         14.448147  -0.000000
 
  0.3750000E+00  0.1250000E+00  0.1250000E+00  0.4687500E-01
      1        -21.402107   1.000000
      2        -20.684716   1.000000
      3        -20.091235   1.000000
      4        -20.091235   1.000000
      5         -5.814185   1.000000
      6         -5.814185   1.000000
      7         -5.255548   1.000000
      8         -4.564442   1.000000
      9         -4.564442   1.000000
     10         -3.692913   1.000000
     11         -3.102143   1.000000
     12         -3.102143   1.000000
     13         -2.842742   1.000000
     14         -2.566496   1.000000
     15         -1.766222   1.000000
     16         -1.657566   1.000000
     17         10.851534   1.000000
     18         11.124834   1.000000
     19         11.124834   1.000000
     20         11.576402   1.000000
     21         11.911469   1.000000
     22         13.054871   1.000000
     23         13.054871   1.000000
     24         13.175525   1.000000
     25         13.946387  -0.024387
     26         13.946387  -0.024387
     27         14.037410  -0.001256
     28         14.271234  -0.000000
     29         14.276949  -0.000000
     30         14.364288  -0.000000
 
  0.5000000E+00  0.1250000E+00  0.1250000E+00  0.2343750E-01
      1        -21.056170   1.000000
      2        -21.056170   1.000000
      3        -20.088139   1.000000
      4        -20.088139   1.000000
      5         -5.664896   1.000000
      6         -5.664896   1.000000
      7         -4.771218   1.000000
      8         -4.771218   1.000000
      9         -4.517746   1.000000
     10         -4.517746   1.000000
     11         -3.142073   1.000000
     12         -3.142073   1.000000
     13         -2.237785   1.000000
     14         -2.237785   1.000000
     15         -2.180621   1.000000
     16         -2.180621   1.000000
     17         11.444755   1.000000
     18         11.444755   1.000000
     19         11.768879   1.000000
     20         11.768879   1.000000
     21         12.362215   1.000000
     22         12.362215   1.000000
     23         13.363820   1.000000
     24         13.363820   1.000000
     25         13.952121  -0.021740
     26         13.952121  -0.021740
     27         13.995850  -0.006420
     28         13.995850  -0.006420
     29         14.211475  -0.000000
     30         14.211477  -0.000000
 
  0.2500000E+00  0.2500000E+00  0.1250000E+00  0.4687500E-01
      1        -21.514721   1.000000
      2        -20.309543   1.000000
      3        -20.309543   1.000000
      4        -20.119407   1.000000
      5         -5.983224   1.000000
      6         -5.892114   1.000000
      7         -5.892114   1.000000
      8         -4.483395   1.000000
      9         -3.677969   1.000000
     10         -3.677969   1.000000
     11         -3.596130   1.000000
     12         -2.799223   1.000000
     13         -2.799223   1.000000
     14         -2.744746   1.000000
     15         -1.617145   1.000000
     16         -1.207703   1.000000
     17         10.297812   1.000000
     18         10.655961   1.000000
     19         10.655961   1.000000
     20         12.087693   1.000000
     21         12.087693   1.000000
     22         12.092676   1.000000
     23         13.013451   1.000000
     24         13.652803   1.032991
     25         14.081688  -0.000142
     26         14.141811  -0.000004
     27         14.210917  -0.000000
     28         14.211384  -0.000000
     29         14.302714  -0.000000
     30         14.354449  -0.000000
 
  0.3750000E+00  0.2500000E+00  0.1250000E+00  0.9375000E-01
      1        -21.260022   1.000000
      2        -20.610026   1.000000
      3        -20.257598   1.000000
      4        -20.154486   1.000000
      5         -5.944116   1.000000
      6         -5.937291   1.000000
      7         -5.552734   1.000000
      8         -4.563093   1.000000
      9         -4.360532   1.000000
     10         -4.034427   1.000000
     11         -3.090469   1.000000
     12         -2.739122   1.000000
     13         -2.633930   1.000000
     14         -2.400999   1.000000
     15         -2.027938   1.000000
     16         -1.432849   1.000000
     17         10.893795   1.000000
     18         11.270470   1.000000
     19         11.473257   1.000000
     20         12.043746   1.000000
     21         12.387905   1.000000
     22         12.981856   1.000000
     23         13.300335   1.000000
     24         13.811276   0.318460
     25         13.827110   0.203584
     26         13.947081  -0.024066
     27         13.983334  -0.009630
     28         14.030064  -0.001728
     29         14.303345  -0.000000
     30         14.338933  -0.000000
 
  0.5000000E+00  0.2500000E+00  0.1250000E+00  0.4687500E-01
      1        -20.944499   1.000000
      2        -20.944499   1.000000
      3        -20.202703   1.000000
      4        -20.202703   1.000000
      5         -5.950842   1.000000
      6         -5.950842   1.000000
      7         -5.032793   1.000000
      8         -5.032793   1.000000
      9         -4.368353   1.000000
     10         -4.368353   1.000000
     11         -2.664604   1.000000
     12         -2.664604   1.000000
     13         -2.525676   1.000000
     14         -2.525676   1.000000
     15         -1.891551   1.000000
     16         -1.891551   1.000000
     17         11.680110   1.000000
     18         11.680110   1.000000
     19         11.819159   1.000000
     20         11.819159   1.000000
     21         12.808042   1.000000
     22         12.808042   1.000000
     23         13.294943   1.000000
     24         13.294943   1.000000
     25         13.901012  -0.033425
     26         13.901012  -0.033425
     27         14.007020  -0.004318
     28         14.007020  -0.004318
     29         14.268693  -0.000000
     30         14.270018  -0.000000
 
  0.3750000E+00  0.3750000E+00  0.1250000E+00  0.4687500E-01
      1        -21.042013   1.000000
      2        -20.500091   1.000000
      3        -20.500091   1.000000
      4        -20.252959   1.000000
      5         -6.056376   1.000000
      6         -5.849911   1.000000
      7         -5.849911   1.000000
      8         -5.014536   1.000000
      9         -4.325026   1.000000
     10         -3.494227   1.000000
     11         -3.494227   1.000000
     12         -2.464612   1.000000
     13         -2.283941   1.000000
     14         -2.218828   1.000000
     15         -2.218828   1.000000
     16         -1.427333   1.000000
     17         11.122733   1.000000
     18         11.982355   1.000000
     19         11.982355   1.000000
     20         12.269525   1.000000
     21         12.785218   1.000000
     22         12.785218   1.000000
     23         13.026570   1.000000
     24         13.835529   0.150968
     25         13.835529   0.150968
     26         13.884510  -0.019494
     27         14.123047  -0.000012
     28         14.146269  -0.000003
     29         14.224689  -0.000000
     30         14.256093  -0.000000
 
  0.5000000E+00  0.3750000E+00  0.1250000E+00  0.4687500E-01
      1        -20.776075   1.000000
      2        -20.776074   1.000000
      3        -20.374063   1.000000
      4        -20.374062   1.000000
      5         -6.033882   1.000000
      6         -6.033882   1.000000
      7         -5.532358   1.000000
      8         -5.532358   1.000000
      9         -3.937419   1.000000
     10         -3.937419   1.000000
     11         -2.968352   1.000000
     12         -2.968352   1.000000
     13         -2.152300   1.000000
     14         -2.152300   1.000000
     15         -1.721390   1.000000
     16         -1.721390   1.000000
     17         11.745780   1.000000
     18         11.745780   1.000000
     19         12.451724   1.000000
     20         12.451724   1.000000
     21         12.623962   1.000000
     22         12.623962   1.000000
     23         13.282912   1.000000
     24         13.282912   1.000000
     25         13.978449  -0.011152
     26         13.978449  -0.011152
     27         14.081889  -0.000140
     28         14.081908  -0.000140
     29         14.329972  -0.000000
     30         14.344955  -0.000000
 
  0.5000000E+00  0.5000000E+00  0.1250000E+00  0.1171875E-01
      1        -20.575648   1.000000
      2        -20.575648   1.000000
      3        -20.575648   1.000000
      4        -20.575648   1.000000
      5         -5.887259   1.000000
      6         -5.887259   1.000000
      7         -5.887259   1.000000
      8         -5.887259   1.000000
      9         -3.460597   1.000000
     10         -3.460597   1.000000
     11         -3.460597   1.000000
     12         -3.460597   1.000000
     13         -1.805522   1.000000
     14         -1.805522   1.000000
     15         -1.805522   1.000000
     16         -1.805522   1.000000
     17         12.089218   1.000000
     18         12.089218   1.000000
     19         12.089218   1.000000
     20         12.089218   1.000000
     21         13.044730   1.000000
     22         13.044730   1.000000
     23         13.044730   1.000000
     24         13.044730   1.000000
     25         14.148352  -0.000002
     26         14.148361  -0.000002
     27         14.156292  -0.000001
     28         14.178032  -0.000000
     29         14.218016  -0.000000
     30         14.218166  -0.000000
 
  0.2500000E+00  0.2500000E+00  0.2500000E+00  0.1562500E-01
      1        -21.365250   1.000000
      2        -20.298919   1.000000
      3        -20.298919   1.000000
      4        -20.298919   1.000000
      5         -6.095678   1.000000
      6         -6.095678   1.000000
      7         -6.095678   1.000000
      8         -4.332791   1.000000
      9         -3.722966   1.000000
     10         -3.722966   1.000000
     11         -3.722966   1.000000