unknown system                          
           1
     4.248635    0.000000    0.000000
     0.000000    4.248635    0.000000
     0.000000    0.000000    4.248635
   Ce
     4
Direct configuration=     1
   0.00000000  0.00000000  0.00000000
   0.00000000  0.50000000  0.50000000
   0.50000000  0.00000000  0.50000000
   0.50000000  0.50000000  0.00000000
