ITEM: TIMESTEP
0
ITEM: NUMBER OF ATOMS
16
ITEM: BOX BOUNDS pp pp pp
0.0000000000000000e+00 6.6399999999999997e+00
0.0000000000000000e+00 6.6399999999999997e+00
0.0000000000000000e+00 6.6399999999999997e+00
ITEM: ATOMS id element type x y z
1 Ta 1 0 0 0
2 Ta 1 1.66 1.66 1.66
3 Ta 1 3.32 0 0
4 Ta 1 4.98 1.66 1.66
5 Ta 1 0 3.32 0
6 Ta 1 1.66 4.98 1.66
7 Ta 1 3.32 3.32 0
8 Ta 1 4.98 4.98 1.66
9 Ta 1 0 0 3.32
10 Ta 1 1.66 1.66 4.98
11 Ta 1 3.32 0 3.32
12 Ta 1 4.98 1.66 4.98
13 Ta 1 0 3.32 3.32
14 Ta 1 1.66 4.98 4.98
15 Ta 1 3.32 3.32 3.32
16 Ta 1 4.98 4.98 4.98
