LAMMPS (29 Aug 2024)
# --------------- INITIALIZATION ------------------
clear
units           metal
dimension                     3
boundary                      p   p    p
atom_style      atomic
boundary        p p p

variable mass_U          equal  235.0439

# ------- hcp setting by hjchen-------------------
lattice     bcc    3.32
Lattice spacing in x,y,z = 3.32 3.32 3.32
region         simbox block 0 2 0 2 0 2
create_box      1 simbox
Created orthogonal box = (0 0 0) to (6.64 6.64 6.64)
  1 by 1 by 1 MPI processor grid
mass 1 ${mass_U}
mass 1 235.0439
create_atoms    1 region simbox
Created 16 atoms
  using lattice units in orthogonal box = (0 0 0) to (6.64 6.64 6.64)
  create_atoms CPU = 0.000 seconds



# # ------------------------ FORCE FIELDS -----------------------

# # 用Ta的ADP势
pair_style      adp
# pair_coeff      * *  Ta.adp.txt   Ta
pair_coeff      * *  Ta.adp_modified.txt  Ta


compute eng all pe/atom
compute eatoms all reduce sum c_eng


reset_timestep 0
thermo 10
thermo_style custom step pe lx ly lz press pxx pyy pzz c_eatoms

neighbor 0.0 bin

# #dump 1 all custom 400 dump.relax.1.* id type xs ys zs c_csym c_eng

dump  myDump_task all custom 100 dump.lammpstrj   id element type x y z
dump_modify  myDump_task  element  Ta sort id

# fix 1 all box/relax iso 0.0 vmax 0.001
# min_style cg
# minimize 1e-15 1e-15 5000 5000
# unfix 1
run 0
WARNING: No fixes with time integration, atoms won't move (../verlet.cpp:60)
Neighbor list info ...
  update: every = 1 steps, delay = 0 steps, check = yes
  max neighbors/atom: 2000, page size: 100000
  master list distance cutoff = 3
  ghost atom cutoff = 3
  binsize = 1.5, bins = 5 5 5
  1 neighbor lists, perpetual/occasional/extra = 1 0 0
  (1) pair adp, perpetual
      attributes: half, newton on
      pair build: half/bin/atomonly/newton
      stencil: half/bin/3d
      bin: standard
Per MPI rank memory allocation (min/avg/max) = 5.811 | 5.811 | 5.811 Mbytes
   Step         PotEng           Lx             Ly             Lz           Press           Pxx            Pyy            Pzz          c_eatoms   
         0  -90.509223      6.64           6.64           6.64           113458.66      113458.66      113458.66      113458.66     -90.509223    
Loop time of 7.38e-07 on 1 procs for 0 steps with 16 atoms

135.5% CPU use with 1 MPI tasks x no OpenMP threads

MPI task timing breakdown:
Section |  min time  |  avg time  |  max time  |%varavg| %total
---------------------------------------------------------------
Pair    | 0          | 0          | 0          |   0.0 |  0.00
Neigh   | 0          | 0          | 0          |   0.0 |  0.00
Comm    | 0          | 0          | 0          |   0.0 |  0.00
Output  | 0          | 0          | 0          |   0.0 |  0.00
Modify  | 0          | 0          | 0          |   0.0 |  0.00
Other   |            | 7.38e-07   |            |       |100.00

Nlocal:             16 ave          16 max          16 min
Histogram: 1 0 0 0 0 0 0 0 0 0
Nghost:             75 ave          75 max          75 min
Histogram: 1 0 0 0 0 0 0 0 0 0
Neighs:             64 ave          64 max          64 min
Histogram: 1 0 0 0 0 0 0 0 0 0

Total # of neighbors = 64
Ave neighs/atom = 4
Neighbor list builds = 0
Dangerous builds = 0




variable N equal count(all)
variable No equal $N
variable No equal 16



variable E equal "c_eatoms"
variable Ei equal $E
variable Ei equal -90.5092226753313

Total wall time: 0:00:00
