  54  54   0   0
  0.1733301E+02  0.9783808E-09  0.1010572E-08  0.9475578E-09  0.5000000E-15
  1.000000000000000E-004
  CAR 
 unknown system                          
     11.39770552    -30.40170131  301      5.83420464      1.00000000
    -30.402  0.0000E+00  0.0000E+00
    -30.262  0.0000E+00  0.0000E+00
    -30.123  0.0000E+00  0.0000E+00
    -29.984  0.0000E+00  0.0000E+00
    -29.844  0.0000E+00  0.0000E+00
    -29.705  0.0000E+00  0.0000E+00
    -29.566  0.0000E+00  0.0000E+00
    -29.426 -0.4322E-37 -0.6022E-38
    -29.287 -0.1012E-26 -0.1410E-27
    -29.148 -0.4578E-18 -0.6378E-19
    -29.008 -0.4534E-11 -0.6318E-12
    -28.869 -0.1097E-05 -0.1529E-06
    -28.730 -0.6651E-02 -0.9268E-03
    -28.590 -0.9619E+00 -0.1350E+00
    -28.451  0.8781E+01  0.1089E+01
    -28.312  0.1214E+03  0.1800E+02
    -28.172  0.2583E+03  0.5399E+02
    -28.033  0.2140E+03  0.8380E+02
    -27.894  0.1583E+03  0.1059E+03
    -27.754  0.1940E+03  0.1329E+03
    -27.615  0.2438E+03  0.1669E+03
    -27.476  0.2674E+03  0.2041E+03
    -27.336  0.2456E+03  0.2383E+03
    -27.197  0.3198E+03  0.2829E+03
    -27.058  0.2603E+03  0.3192E+03
    -26.918  0.3773E+02  0.3244E+03
    -26.779 -0.3041E+01  0.3240E+03
    -26.640 -0.2431E-01  0.3240E+03
    -26.500 -0.3604E-05  0.3240E+03
    -26.361 -0.1192E-10  0.3240E+03
    -26.222  0.0000E+00  0.3240E+03
    -26.082  0.0000E+00  0.3240E+03
    -25.943  0.0000E+00  0.3240E+03
    -25.804  0.0000E+00  0.3240E+03
    -25.664  0.0000E+00  0.3240E+03
    -25.525  0.0000E+00  0.3240E+03
    -25.386  0.0000E+00  0.3240E+03
    -25.246  0.0000E+00  0.3240E+03
    -25.107  0.0000E+00  0.3240E+03
    -24.968  0.0000E+00  0.3240E+03
    -24.828  0.0000E+00  0.3240E+03
    -24.689  0.0000E+00  0.3240E+03
    -24.550  0.0000E+00  0.3240E+03
    -24.410  0.0000E+00  0.3240E+03
    -24.271  0.0000E+00  0.3240E+03
    -24.132  0.0000E+00  0.3240E+03
    -23.992  0.0000E+00  0.3240E+03
    -23.853  0.0000E+00  0.3240E+03
    -23.714  0.0000E+00  0.3240E+03
    -23.574  0.0000E+00  0.3240E+03
    -23.435  0.0000E+00  0.3240E+03
    -23.296  0.0000E+00  0.3240E+03
    -23.156  0.0000E+00  0.3240E+03
    -23.017  0.0000E+00  0.3240E+03
    -22.878  0.0000E+00  0.3240E+03
    -22.738  0.0000E+00  0.3240E+03
    -22.599  0.0000E+00  0.3240E+03
    -22.460  0.0000E+00  0.3240E+03
    -22.320  0.0000E+00  0.3240E+03
    -22.181  0.0000E+00  0.3240E+03
    -22.042  0.0000E+00  0.3240E+03
    -21.902  0.0000E+00  0.3240E+03
    -21.763  0.0000E+00  0.3240E+03
    -21.624  0.0000E+00  0.3240E+03
    -21.484  0.0000E+00  0.3240E+03
    -21.345  0.0000E+00  0.3240E+03
    -21.206  0.0000E+00  0.3240E+03
    -21.067  0.0000E+00  0.3240E+03
    -20.927  0.0000E+00  0.3240E+03
    -20.788  0.0000E+00  0.3240E+03
    -20.649  0.0000E+00  0.3240E+03
    -20.509  0.0000E+00  0.3240E+03
    -20.370  0.0000E+00  0.3240E+03
    -20.231  0.0000E+00  0.3240E+03
    -20.091  0.0000E+00  0.3240E+03
    -19.952  0.0000E+00  0.3240E+03
    -19.813  0.0000E+00  0.3240E+03
    -19.673  0.0000E+00  0.3240E+03
    -19.534  0.0000E+00  0.3240E+03
    -19.395  0.0000E+00  0.3240E+03
    -19.255  0.0000E+00  0.3240E+03
    -19.116  0.0000E+00  0.3240E+03
    -18.977  0.0000E+00  0.3240E+03
    -18.837  0.0000E+00  0.3240E+03
    -18.698  0.0000E+00  0.3240E+03
    -18.559  0.0000E+00  0.3240E+03
    -18.419  0.0000E+00  0.3240E+03
    -18.280  0.0000E+00  0.3240E+03
    -18.141  0.0000E+00  0.3240E+03
    -18.001  0.0000E+00  0.3240E+03
    -17.862  0.0000E+00  0.3240E+03
    -17.723  0.0000E+00  0.3240E+03
    -17.583  0.0000E+00  0.3240E+03
    -17.444  0.0000E+00  0.3240E+03
    -17.305  0.0000E+00  0.3240E+03
    -17.165  0.0000E+00  0.3240E+03
    -17.026  0.0000E+00  0.3240E+03
    -16.887  0.0000E+00  0.3240E+03
    -16.747  0.0000E+00  0.3240E+03
    -16.608  0.0000E+00  0.3240E+03
    -16.469  0.0000E+00  0.3240E+03
    -16.329  0.0000E+00  0.3240E+03
    -16.190  0.0000E+00  0.3240E+03
    -16.051  0.0000E+00  0.3240E+03
    -15.911  0.0000E+00  0.3240E+03
    -15.772  0.0000E+00  0.3240E+03
    -15.633  0.0000E+00  0.3240E+03
    -15.493  0.0000E+00  0.3240E+03
    -15.354  0.0000E+00  0.3240E+03
    -15.215  0.0000E+00  0.3240E+03
    -15.075  0.0000E+00  0.3240E+03
    -14.936  0.0000E+00  0.3240E+03
    -14.797  0.0000E+00  0.3240E+03
    -14.657  0.0000E+00  0.3240E+03
    -14.518  0.0000E+00  0.3240E+03
    -14.379  0.0000E+00  0.3240E+03
    -14.239  0.0000E+00  0.3240E+03
    -14.100  0.0000E+00  0.3240E+03
    -13.961  0.0000E+00  0.3240E+03
    -13.821  0.0000E+00  0.3240E+03
    -13.682  0.0000E+00  0.3240E+03
    -13.543  0.0000E+00  0.3240E+03
    -13.403  0.0000E+00  0.3240E+03
    -13.264  0.0000E+00  0.3240E+03
    -13.125  0.0000E+00  0.3240E+03
    -12.985  0.0000E+00  0.3240E+03
    -12.846  0.0000E+00  0.3240E+03
    -12.707  0.0000E+00  0.3240E+03
    -12.567  0.0000E+00  0.3240E+03
    -12.428  0.0000E+00  0.3240E+03
    -12.289  0.0000E+00  0.3240E+03
    -12.149  0.0000E+00  0.3240E+03
    -12.010  0.0000E+00  0.3240E+03
    -11.871  0.0000E+00  0.3240E+03
    -11.731  0.0000E+00  0.3240E+03
    -11.592  0.0000E+00  0.3240E+03
    -11.453  0.0000E+00  0.3240E+03
    -11.313  0.0000E+00  0.3240E+03
    -11.174  0.0000E+00  0.3240E+03
    -11.035  0.0000E+00  0.3240E+03
    -10.895  0.0000E+00  0.3240E+03
    -10.756  0.0000E+00  0.3240E+03
    -10.617  0.0000E+00  0.3240E+03
    -10.477  0.0000E+00  0.3240E+03
    -10.338  0.0000E+00  0.3240E+03
    -10.199  0.0000E+00  0.3240E+03
    -10.059  0.0000E+00  0.3240E+03
     -9.920  0.0000E+00  0.3240E+03
     -9.781  0.0000E+00  0.3240E+03
     -9.641  0.0000E+00  0.3240E+03
     -9.502  0.0000E+00  0.3240E+03
     -9.363  0.0000E+00  0.3240E+03
     -9.223  0.0000E+00  0.3240E+03
     -9.084  0.0000E+00  0.3240E+03
     -8.945  0.0000E+00  0.3240E+03
     -8.805  0.0000E+00  0.3240E+03
     -8.666  0.0000E+00  0.3240E+03
     -8.527  0.0000E+00  0.3240E+03
     -8.387  0.0000E+00  0.3240E+03
     -8.248  0.0000E+00  0.3240E+03
     -8.109  0.0000E+00  0.3240E+03
     -7.969  0.0000E+00  0.3240E+03
     -7.830  0.0000E+00  0.3240E+03
     -7.691  0.0000E+00  0.3240E+03
     -7.551  0.0000E+00  0.3240E+03
     -7.412  0.0000E+00  0.3240E+03
     -7.273  0.0000E+00  0.3240E+03
     -7.133  0.0000E+00  0.3240E+03
     -6.994  0.0000E+00  0.3240E+03
     -6.855  0.0000E+00  0.3240E+03
     -6.715  0.0000E+00  0.3240E+03
     -6.576  0.0000E+00  0.3240E+03
     -6.437  0.0000E+00  0.3240E+03
     -6.297  0.0000E+00  0.3240E+03
     -6.158  0.0000E+00  0.3240E+03
     -6.019  0.0000E+00  0.3240E+03
     -5.879  0.0000E+00  0.3240E+03
     -5.740  0.0000E+00  0.3240E+03
     -5.601  0.0000E+00  0.3240E+03
     -5.461  0.0000E+00  0.3240E+03
     -5.322  0.0000E+00  0.3240E+03
     -5.183  0.0000E+00  0.3240E+03
     -5.043  0.0000E+00  0.3240E+03
     -4.904  0.0000E+00  0.3240E+03
     -4.765  0.0000E+00  0.3240E+03
     -4.625  0.0000E+00  0.3240E+03
     -4.486  0.0000E+00  0.3240E+03
     -4.347  0.0000E+00  0.3240E+03
     -4.207  0.0000E+00  0.3240E+03
     -4.068  0.0000E+00  0.3240E+03
     -3.929  0.0000E+00  0.3240E+03
     -3.789  0.0000E+00  0.3240E+03
     -3.650  0.0000E+00  0.3240E+03
     -3.511  0.0000E+00  0.3240E+03
     -3.371  0.0000E+00  0.3240E+03
     -3.232  0.0000E+00  0.3240E+03
     -3.093 -0.1179E-30  0.3240E+03
     -2.953 -0.2075E-21  0.3240E+03
     -2.814 -0.7003E-14  0.3240E+03
     -2.675 -0.4600E-08  0.3240E+03
     -2.535 -0.5300E-04  0.3240E+03
     -2.396 -0.6864E-02  0.3240E+03
     -2.257  0.8499E-01  0.3240E+03
     -2.117  0.4833E+00  0.3241E+03
     -1.978  0.1414E+01  0.3243E+03
     -1.839  0.2404E+01  0.3246E+03
     -1.699  0.1640E+01  0.3248E+03
     -1.560  0.1259E+01  0.3250E+03
     -1.421  0.4370E+01  0.3256E+03
     -1.281  0.5200E+01  0.3263E+03
     -1.142  0.1518E+01  0.3266E+03
     -1.003  0.1876E+01  0.3268E+03
     -0.863  0.5374E+01  0.3276E+03
     -0.724  0.5532E+01  0.3283E+03
     -0.585  0.5336E+01  0.3291E+03
     -0.445  0.4613E+01  0.3297E+03
     -0.306  0.6545E+01  0.3306E+03
     -0.167  0.7153E+01  0.3316E+03
     -0.027  0.2161E+01  0.3319E+03
      0.112  0.6197E+01  0.3328E+03
      0.251  0.1123E+02  0.3344E+03
      0.391  0.9726E+01  0.3357E+03
      0.530  0.8158E+01  0.3369E+03
      0.669  0.1013E+02  0.3383E+03
      0.809  0.1068E+02  0.3398E+03
      0.948  0.1034E+02  0.3412E+03
      1.087  0.8846E+01  0.3424E+03
      1.227  0.1959E+02  0.3452E+03
      1.366  0.3640E+02  0.3502E+03
      1.505  0.4030E+02  0.3558E+03
      1.645  0.2415E+02  0.3592E+03
      1.784  0.2550E+02  0.3628E+03
      1.923  0.4210E+02  0.3686E+03
      2.063  0.4882E+02  0.3754E+03
      2.202  0.3697E+02  0.3806E+03
      2.341  0.4495E+02  0.3868E+03
      2.480  0.4224E+02  0.3927E+03
      2.620  0.4968E+02  0.3997E+03
      2.759  0.6811E+02  0.4091E+03
      2.898  0.6060E+02  0.4176E+03
      3.038  0.3817E+02  0.4229E+03
      3.177  0.3851E+02  0.4283E+03
      3.316  0.4119E+02  0.4340E+03
      3.456  0.2931E+02  0.4381E+03
      3.595  0.2043E+02  0.4409E+03
      3.734  0.1926E+02  0.4436E+03
      3.874  0.3356E+02  0.4483E+03
      4.013  0.4197E+02  0.4541E+03
      4.152  0.7008E+02  0.4639E+03
      4.292  0.8445E+02  0.4757E+03
      4.431  0.8362E+02  0.4873E+03
      4.570  0.8347E+02  0.4990E+03
      4.710  0.7753E+02  0.5098E+03
      4.849  0.6671E+02  0.5191E+03
      4.988  0.6301E+02  0.5278E+03
      5.128  0.6945E+02  0.5375E+03
      5.267  0.7801E+02  0.5484E+03
      5.406  0.8009E+02  0.5595E+03
      5.546  0.8363E+02  0.5712E+03
      5.685  0.8336E+02  0.5828E+03
      5.824  0.7542E+02  0.5933E+03
      5.964  0.6671E+02  0.6026E+03
      6.103  0.5479E+02  0.6102E+03
      6.242  0.4541E+02  0.6166E+03
      6.382  0.4035E+02  0.6222E+03
      6.521  0.3270E+02  0.6267E+03
      6.660  0.2279E+02  0.6299E+03
      6.800  0.2363E+02  0.6332E+03
      6.939  0.2197E+02  0.6363E+03
      7.078  0.1795E+02  0.6388E+03
      7.218  0.1677E+02  0.6411E+03
      7.357  0.1914E+02  0.6438E+03
      7.496  0.1870E+02  0.6464E+03
      7.636  0.2698E+02  0.6501E+03
      7.775  0.2905E+02  0.6542E+03
      7.914  0.2684E+02  0.6579E+03
      8.054  0.3313E+02  0.6625E+03
      8.193  0.3875E+02  0.6679E+03
      8.332  0.4281E+02  0.6739E+03
      8.472  0.3742E+02  0.6791E+03
      8.611  0.4029E+02  0.6847E+03
      8.750  0.4334E+02  0.6908E+03
      8.890  0.4562E+02  0.6971E+03
      9.029  0.5150E+02  0.7043E+03
      9.168  0.4907E+02  0.7111E+03
      9.308  0.4339E+02  0.7172E+03
      9.447  0.1923E+02  0.7199E+03
      9.586  0.1050E+01  0.7200E+03
      9.726 -0.1165E+00  0.7200E+03
      9.865 -0.1954E-02  0.7200E+03
     10.004 -0.6739E-06  0.7200E+03
     10.144 -0.4565E-11  0.7200E+03
     10.283  0.0000E+00  0.7200E+03
     10.422  0.0000E+00  0.7200E+03
     10.562  0.0000E+00  0.7200E+03
     10.701  0.0000E+00  0.7200E+03
     10.840  0.0000E+00  0.7200E+03
     10.980  0.0000E+00  0.7200E+03
     11.119  0.0000E+00  0.7200E+03
     11.258  0.0000E+00  0.7200E+03
     11.398  0.0000E+00  0.7200E+03
