       N       E                     dE             d eps       ncg     rms          rms(c)
DAV:   1     0.687504252544E+04    0.68750E+04   -0.32271E+05 25920   0.175E+03
DAV:   2    -0.194281336863E+03   -0.70693E+04   -0.68710E+04 26064   0.546E+02
DAV:   3    -0.633899068636E+03   -0.43962E+03   -0.40800E+03 31836   0.114E+02
DAV:   4    -0.655644773464E+03   -0.21746E+02   -0.20555E+02 30444   0.204E+01
DAV:   5    -0.656562859989E+03   -0.91809E+00   -0.91096E+00 32772   0.349E+00    0.107E+02
DAV:   6    -0.639147334351E+03    0.17416E+02   -0.24098E+01 30288   0.125E+01    0.544E+01
DAV:   7    -0.641730054549E+03   -0.25827E+01   -0.46624E+01 32496   0.211E+01    0.138E+01
DAV:   8    -0.633203271237E+03    0.85268E+01   -0.23749E+01 32820   0.126E+01    0.335E+00
DAV:   9    -0.633216140337E+03   -0.12869E-01   -0.40673E+00 32616   0.433E+00    0.245E+00
DAV:  10    -0.633175307832E+03    0.40833E-01   -0.47226E-01 31368   0.184E+00    0.160E+00
DAV:  11    -0.633160032254E+03    0.15276E-01   -0.13593E-01 31548   0.111E+00    0.850E-01
DAV:  12    -0.633158565297E+03    0.14670E-02   -0.58620E-02 31692   0.834E-01    0.510E-01
DAV:  13    -0.633155201728E+03    0.33636E-02   -0.16647E-02 31452   0.469E-01    0.203E-01
DAV:  14    -0.633154763082E+03    0.43865E-03   -0.36265E-03 31836   0.197E-01    0.132E-01
DAV:  15    -0.633154697941E+03    0.65142E-04   -0.11316E-03 31488   0.102E-01    0.860E-02
DAV:  16    -0.633154638868E+03    0.59073E-04   -0.43318E-04 31620   0.697E-02    0.502E-02
DAV:  17    -0.633154619904E+03    0.18964E-04   -0.12785E-04 26028   0.374E-02    0.260E-02
DAV:  18    -0.633154608195E+03    0.11709E-04   -0.33889E-05 22416   0.208E-02    0.108E-02
DAV:  19    -0.633154605245E+03    0.29494E-05   -0.93274E-06 15708   0.107E-02
   1 F= -.63315461E+03 E0= -.63315469E+03  d E =0.266195E-03
