 vasp.6.3.0 20Jan22 (build Mar 25 2022 12:20:17) complex                        
  
 executed on             LinuxIFC date 2023.07.24  23:19:01
 running on   96 total cores
 distrk:  each k-point on   96 cores,    1 groups
 distr:  one band on NCORE=  16 cores,    6 groups


--------------------------------------------------------------------------------------------------------


 INCAR:
   ALGO = normal
   EDIFF = 1E-5
   KSPACING = 0.20000
   LASPH = .TRUE.
   ENCUT = 520
   ISIF = 2
   ISMEAR = 1
   LREAL = Auto
   LWAVE = False
   LCHARG = .FALSE.
   NELM = 400
   NSW = 0
   PREC = Accurate
   SIGMA = 0.1
   NPAR = 6

 POTCAR:    PAW_PBE Ta_pv 07Sep2000               
 POTCAR:    PAW_PBE Ta_pv 07Sep2000               
   SHA256 =  00d0a14a36c127416459414afb8617d9754996fffa60a2465888e660b20a452f Ta_pv/POTCAR          
   COPYR  = (c) Copyright 07Sep2000 Georg Kresse                                                    
   COPYR  = This file is part of the software VASP. Any use, copying, and all other rights are regul
   COPYR  = If you do not have a valid VASP license, you may not use, copy or distribute this file. 
   VRHFIN =Ta:  5p6s5d                                                                              
   LEXCH  = PE                                                                                      
   EATOM  =  1047.1984 eV,   76.9669 Ry                                                             
                                                                                                    
   TITEL  = PAW_PBE Ta_pv 07Sep2000                                                                 
   LULTRA =        F    use ultrasoft PP ?                                                          
   IUNSCR =        1    unscreen: 0-lin 1-nonlin 2-no                                               
   RPACOR =    2.330    partial core radius                                                         
   POMASS =  180.948; ZVAL   =   11.000    mass and valenz                                          
   RCORE  =    2.500    outmost cutoff radius                                                       
   RWIGS  =    2.840; RWIGS  =    1.503    wigner-seitz radius (au A)                               
   ENMAX  =  223.667; ENMIN  =  167.750 eV                                                          
   RCLOC  =    2.205    cutoff for local pot                                                        
   LCOR   =        T    correct aug charges                                                         
   LPAW   =        T    paw PP                                                                      
   EAUG   =  377.421                                                                                
   DEXC   =    0.000                                                                                
   RMAX   =    2.551    core radius for proj-oper                                                   
   RAUG   =    1.300    factor for augmentation sphere                                              
   RDEP   =    2.526    radius for radial grids                                                     
   RDEPT  =    2.132    core radius for aug-charge                                                  
                                                                                                    
   Atomic configuration                                                                             
   15 entries                                                                                       
     n  l   j            E        occ.                                                              
     1  0  0.50    -67341.2801   2.0000                                                             
     2  0  0.50    -11566.9369   2.0000                                                             
     2  1  1.50    -10134.1175   6.0000                                                             
     3  0  0.50     -2648.5614   2.0000                                                             
     3  1  1.50     -2222.6006   6.0000                                                             
     3  2  2.50     -1726.3114  10.0000                                                             
     4  0  0.50      -538.6957   2.0000                                                             
     4  1  1.50      -399.0125   6.0000                                                             
     4  2  2.50      -220.3955  10.0000                                                             
     4  3  3.50       -23.0371  14.0000                                                             
     5  0  0.50       -71.2900   2.0000                                                             
     5  1  1.50       -37.8224   6.0000                                                             
     5  2  2.50        -2.6455   4.0000                                                             
     6  0  0.50        -4.9623   1.0000                                                             
     5  3  2.50        -1.3606   0.0000                                                             
   Description                                                                                      
     l       E           TYP  RCUT    TYP  RCUT                                                     
     1    -37.8224449     23  2.500                                                                 
     1      1.3605826     23  2.500                                                                 
     2     -2.6454718     23  2.500                                                                 
     2     -0.6258570     23  2.500                                                                 
     0     -4.9622674     23  2.500                                                                 
     0      4.7531427     23  2.500                                                                 
  local pseudopotential read in
  partial core-charges read in
  partial kinetic energy density read in
  atomic valenz-charges read in
  non local Contribution for L=           1  read in
    real space projection operators read in
  non local Contribution for L=           1  read in
    real space projection operators read in
  non local Contribution for L=           2  read in
    real space projection operators read in
  non local Contribution for L=           2  read in
    real space projection operators read in
  non local Contribution for L=           0  read in
    real space projection operators read in
  non local Contribution for L=           0  read in
    real space projection operators read in
    PAW grid and wavefunctions read in
 
   number of l-projection  operators is LMAX  =           6
   number of lm-projection operators is LMMAX =          18
 
 Optimization of the real space projectors (new method)

 maximal supplied QI-value         = 15.12
 optimisation between [QCUT,QGAM] = [ 11.64, 23.28] = [ 37.95,151.78] Ry 
 Optimized for a Real-space Cutoff    1.58 Angstroem

   l    n(q)    QCUT    max X(q) W(low)/X(q) W(high)/X(q)  e(spline) 
   1     11    11.641     4.092    0.14E-04    0.12E-05    0.47E-07
   1     11    11.641     4.834    0.39E-04    0.18E-04    0.22E-06
   2     10    11.641    62.294    0.58E-04    0.39E-03    0.13E-05
   2     10    11.641    50.966    0.58E-04    0.39E-03    0.13E-05
   0     11    11.641   103.792    0.30E-04    0.35E-04    0.21E-06
   0     11    11.641    56.335    0.22E-04    0.32E-04    0.20E-06
  PAW_PBE Ta_pv 07Sep2000               :
 energy of atom  1       EATOM=-1047.1984
 kinetic energy error for atom=    0.0016 (will be added to EATOM!!)
 
 
 POSCAR: Ta54
  positions in cartesian coordinates
  No initial velocities read in
 exchange correlation table for  LEXCH =        8
   RHO(1)=    0.500       N(1)  =     2000
   RHO(2)=  100.500       N(2)  =     4000
 


--------------------------------------------------------------------------------------------------------


 ion  position               nearest neighbor table
   1  0.004  0.005  0.996-  28 2.72  36 2.74  54 2.78  46 2.81  30 2.82  48 2.83  52 2.88  34 2.92
                             3 3.10   2 3.19   4 3.28  10 3.30  19 3.32   7 3.48
   2  0.002  0.998  0.332-  34 2.74  52 2.79  29 2.80  47 2.84  35 2.87  28 2.90  46 2.91  53 2.94
                             3 3.18   1 3.19  11 3.20  20 3.29   8 3.37   5 3.44
   3  0.006  0.001  0.668-  30 2.69  48 2.75  29 2.80  35 2.80  36 2.86  54 2.87  47 2.87  53 2.95
                             1 3.10   2 3.18  12 3.27   6 3.31  21 3.34   9 3.45
   4  0.999  0.330  0.997-  30 2.75  31 2.83  49 2.84  28 2.85  48 2.85  33 2.88  51 2.89  46 2.93
                             5 3.12   6 3.18  13 3.25  22 3.26   1 3.28   7 3.34
   5  0.005  0.338  0.326-  32 2.72  31 2.77  28 2.80  49 2.87  50 2.89  29 2.90  46 2.90  47 3.04
                             4 3.12   6 3.18  14 3.25   8 3.31  23 3.32   2 3.44
   6  1.000  0.328  0.661-  29 2.68  47 2.75  30 2.78  33 2.84  32 2.89  50 2.89  48 2.90  51 2.91
                             5 3.18   4 3.18  15 3.26   3 3.31  24 3.31   9 3.35
   7  0.000  0.661  1.000-  31 2.75  33 2.76  51 2.80  52 2.82  36 2.83  49 2.86  54 2.90  34 2.92
                             8 3.14   9 3.22  16 3.22  25 3.27   4 3.34   1 3.48
   8  0.993  0.665  0.332-  31 2.73  53 2.74  49 2.77  50 2.84  32 2.85  52 2.89  35 2.90  34 2.98
                             9 3.11   7 3.14  26 3.16   5 3.31  17 3.34   2 3.37
   9  0.999  0.660  0.659-  50 2.66  32 2.73  54 2.86  33 2.86  36 2.87  53 2.89  51 2.94  35 2.95
                             8 3.11   7 3.22  18 3.24  27 3.29   6 3.35   3 3.45
  10  0.341  0.002  0.995-  45 2.75  28 2.77  43 2.78  39 2.80  37 2.83  36 2.85  34 2.90  30 2.94
                            12 3.06  11 3.14  19 3.17   1 3.30  16 3.35  13 3.43
  11  0.329  0.001  0.326-  34 2.65  43 2.76  28 2.80  29 2.82  44 2.83  35 2.84  38 2.86  37 2.86
                            10 3.14   2 3.20  12 3.27  20 3.29  17 3.35  14 3.38
  12  0.341  1.000  0.671-  44 2.72  39 2.73  30 2.79  38 2.81  45 2.82  35 2.82  29 2.94  36 2.97
                            10 3.06  21 3.17   3 3.27  11 3.27  15 3.33  18 3.41
  13  0.331  0.341  0.996-  33 2.77  40 2.79  31 2.81  42 2.85  39 2.86  30 2.87  28 2.90  37 3.00
                            15 3.15  14 3.20   4 3.25  22 3.28  16 3.34  10 3.43
  14  0.337  0.335  0.334-  32 2.76  41 2.76  37 2.77  40 2.83  28 2.88  38 2.93  31 2.94  29 2.95
                            15 3.13  13 3.20  23 3.21   5 3.25  11 3.38  17 3.38
  15  0.332  0.328  0.663-  29 2.76  38 2.76  33 2.79  30 2.83  42 2.84  39 2.89  41 2.90  32 2.91
                            14 3.13  13 3.15  24 3.22   6 3.26  12 3.33  18 3.37
  16  0.330  0.672  0.007-  34 2.69  43 2.73  36 2.81  40 2.83  42 2.85  31 2.86  33 2.87  45 2.97
                            17 3.07  18 3.19   7 3.22  25 3.29  13 3.34  10 3.35
  17  0.334  0.670  0.331-  40 2.72  35 2.72  44 2.78  34 2.81  31 2.82  41 2.83  43 2.88  32 2.91
                            16 3.07  18 3.22  26 3.29   8 3.34  11 3.35  14 3.38
  18  0.330  0.662  0.670-  41 2.73  42 2.77  36 2.78  33 2.80  32 2.84  35 2.86  45 2.89  44 2.99
                            16 3.19  17 3.22   9 3.24  27 3.26  15 3.37  12 3.41
  19  0.665  0.998  0.006-  46 2.70  45 2.74  37 2.74  52 2.76  43 2.78  54 2.79  39 2.86  48 2.90
                            20 3.08  10 3.17  21 3.18   1 3.32  22 3.38  25 3.39
  20  0.666  0.998  0.331-  52 2.75  38 2.77  43 2.79  37 2.80  46 2.81  47 2.82  44 2.82  53 2.84
                            19 3.08  21 3.22   2 3.29  11 3.29  26 3.36  23 3.47
  21  0.666  0.993  0.670-  45 2.74  48 2.74  39 2.75  53 2.77  44 2.78  54 2.80  38 2.83  47 2.87
                            12 3.17  19 3.18  20 3.22  27 3.24   3 3.34  24 3.45
  22  0.666  0.333  0.007-  49 2.74  46 2.78  40 2.80  37 2.82  39 2.83  51 2.85  48 2.86  42 2.96
                            23 3.09   4 3.26  13 3.28  24 3.29  25 3.33  19 3.38
  23  0.665  0.341  0.333-  41 2.77  37 2.78  50 2.82  46 2.82  49 2.82  40 2.84  47 2.94  38 2.97
                            22 3.09  24 3.10  14 3.21  26 3.28   5 3.32  20 3.47
  24  0.661  0.334  0.660-  38 2.73  47 2.74  42 2.78  51 2.84  41 2.85  50 2.87  39 2.87  48 2.93
                            23 3.10  15 3.22  22 3.29   6 3.31  27 3.42  21 3.45
  25  0.666  0.662  0.009-  51 2.72  49 2.73  43 2.76  52 2.79  40 2.81  42 2.84  45 2.90  54 3.00
                            26 3.15   7 3.27  16 3.29  27 3.30  22 3.33  19 3.39
  26  0.670  0.666  0.342-  53 2.64  49 2.76  50 2.77  44 2.79  41 2.84  40 2.86  52 2.98  43 3.00
                            27 3.03  25 3.15   8 3.16  23 3.28  17 3.29  20 3.36
  27  0.662  0.672  0.662-  45 2.72  50 2.73  53 2.78  41 2.79  54 2.87  44 2.87  42 2.87  51 2.91
                            26 3.03  21 3.24  18 3.26   9 3.29  25 3.30  24 3.42
  28  0.169  0.164  0.159-   1 2.72  10 2.77   5 2.80  11 2.80   4 2.85  14 2.88   2 2.90  13 2.90
                            30 3.16  29 3.26  34 3.29  37 3.30  46 3.37  31 3.45
  29  0.162  0.166  0.503-   6 2.68  15 2.76   2 2.80   3 2.80  11 2.82   5 2.90  12 2.94  14 2.95
                            30 3.06  28 3.26  47 3.26  38 3.33  35 3.36  32 3.36
  30  0.162  0.168  0.826-   3 2.69   4 2.75   6 2.78  12 2.79   1 2.82  15 2.83  13 2.87  10 2.94
                            29 3.06  28 3.16  48 3.25  33 3.34  39 3.35  36 3.43
  31  0.159  0.505  0.167-   8 2.73   7 2.75   5 2.77  13 2.81  17 2.82   4 2.83  16 2.86  14 2.94
                            32 3.10  33 3.18  49 3.25  40 3.29  34 3.38  28 3.45
  32  0.163  0.498  0.493-   5 2.72   9 2.73  14 2.76  18 2.84   8 2.85   6 2.89  17 2.91  15 2.91
                            31 3.10  33 3.20  41 3.25  50 3.25  29 3.36  35 3.39
  33  0.167  0.498  0.831-   7 2.76  13 2.77  15 2.79  18 2.80   6 2.84   9 2.86  16 2.87   4 2.88
                            31 3.18  32 3.20  42 3.24  30 3.34  36 3.34  51 3.36
  34  0.174  0.839  0.169-  11 2.65  16 2.69   2 2.74  17 2.81  10 2.90   1 2.92   7 2.92   8 2.98
                            35 3.12  36 3.13  43 3.16  28 3.29  52 3.34  31 3.38
  35  0.175  0.834  0.498-  17 2.72   3 2.80  12 2.82  11 2.84  18 2.86   2 2.87   8 2.90   9 2.95
                            34 3.12  44 3.14  36 3.23  29 3.36  32 3.39  53 3.42
  36  0.163  0.829  0.839-   1 2.74  18 2.78  16 2.81   7 2.83  10 2.85   3 2.86   9 2.87  12 2.97
                            34 3.13  54 3.20  35 3.23  33 3.34  45 3.38  30 3.43
  37  0.506  0.167  0.172-  19 2.74  14 2.77  23 2.78  20 2.80  22 2.82  10 2.83  11 2.86  13 3.00
                            46 3.12  38 3.16  39 3.21  28 3.30  43 3.33  40 3.40
  38  0.503  0.160  0.505-  24 2.73  15 2.76  20 2.77  12 2.81  21 2.83  11 2.86  14 2.93  23 2.97
                            39 3.10  37 3.16  47 3.19  44 3.23  29 3.33  41 3.49
  39  0.504  0.164  0.832-  12 2.73  21 2.75  10 2.80  22 2.83  19 2.86  13 2.86  24 2.87  15 2.89
                            38 3.10  48 3.19  37 3.21  45 3.31  30 3.35  42 3.44
  40  0.495  0.503  0.169-  17 2.72  13 2.79  22 2.80  25 2.81  14 2.83  16 2.83  23 2.84  26 2.86
                            41 3.13  42 3.22  49 3.25  31 3.29  43 3.38  37 3.40
  41  0.495  0.505  0.499-  18 2.73  14 2.76  23 2.77  27 2.79  17 2.83  26 2.84  24 2.85  15 2.90
                            42 3.12  40 3.13  32 3.25  50 3.29  44 3.39  38 3.49
  42  0.498  0.504  0.829-  18 2.77  24 2.78  25 2.84  15 2.84  13 2.85  16 2.85  27 2.87  22 2.96
                            41 3.12  51 3.19  40 3.22  33 3.24  45 3.36  39 3.44
  43  0.497  0.838  0.160-  16 2.73  11 2.76  25 2.76  19 2.78  10 2.78  20 2.79  17 2.88  26 3.00
                            45 3.10  34 3.16  44 3.16  52 3.29  37 3.33  40 3.38
  44  0.496  0.840  0.495-  12 2.72  17 2.78  21 2.78  26 2.79  20 2.82  11 2.83  27 2.87  18 2.99
                            35 3.14  43 3.16  45 3.22  53 3.23  38 3.23  41 3.39
  45  0.508  0.836  0.834-  27 2.72  21 2.74  19 2.74  10 2.75  12 2.82  18 2.89  25 2.90  16 2.97
                            43 3.10  54 3.21  44 3.22  39 3.31  42 3.36  36 3.38
  46  0.824  0.162  0.164-  19 2.70  22 2.78   1 2.81  20 2.81  23 2.82   5 2.90   2 2.91   4 2.93
                            37 3.12  48 3.19  47 3.23  52 3.26  28 3.37  49 3.43
  47  0.829  0.164  0.506-  24 2.74   6 2.75  20 2.82   2 2.84  21 2.87   3 2.87  23 2.94   5 3.04
                            48 3.06  38 3.19  46 3.23  29 3.26  53 3.40  50 3.46
  48  0.830  0.160  0.828-  21 2.74   3 2.75   1 2.83   4 2.85  22 2.86  19 2.90   6 2.90  24 2.93
                            47 3.06  46 3.19  39 3.19  30 3.25  54 3.25  51 3.45
  49  0.827  0.502  0.166-  25 2.73  22 2.74  26 2.76   8 2.77  23 2.82   4 2.84   7 2.86   5 2.87
                            51 3.11  50 3.22  31 3.25  40 3.25  52 3.41  46 3.43
  50  0.831  0.507  0.505-   9 2.66  27 2.73  26 2.77  23 2.82   8 2.84  24 2.87   6 2.89   5 2.89
                            51 3.15  49 3.22  53 3.25  32 3.25  41 3.29  47 3.46
  51  0.824  0.501  0.837-  25 2.72   7 2.80  24 2.84  22 2.85   4 2.89  27 2.91   6 2.91   9 2.94
                            49 3.11  50 3.15  42 3.19  33 3.36  54 3.41  48 3.45
  52  0.833  0.839  0.161-  20 2.75  19 2.76   2 2.79  25 2.79   7 2.82   1 2.88   8 2.89  26 2.98
                            54 3.10  53 3.18  46 3.26  43 3.29  34 3.34  49 3.41
  53  0.826  0.828  0.496-  26 2.64   8 2.74  21 2.77  27 2.78  20 2.84   9 2.89   2 2.94   3 2.95
                            52 3.18  54 3.20  44 3.23  50 3.25  47 3.40  35 3.42
  54  0.837  0.838  0.834-   1 2.78  19 2.79  21 2.80   9 2.86   3 2.87  27 2.87   7 2.90  25 3.00
                            52 3.10  36 3.20  53 3.20  45 3.21  48 3.25  51 3.41
 
  LATTYP: Found a triclinic cell.
 ALAT       =    13.5583226565
 B/A-ratio  =     0.6988753641
 C/A-ratio  =     0.7216089958
 COS(alpha) =     0.0024044837
 COS(beta)  =     0.0095308771
 COS(gamma) =     0.6674133128
  
  Lattice vectors:
  
 A1 = (   0.1292227075,   9.7049240170,   9.4670937765)
 A2 = (   0.0227838724,  -0.4002358550,   9.4670937765)
 A3 = (   9.7838075974,   0.0000000000,   0.0000000000)


Analysis of symmetry for initial positions (statically):
=====================================================================
 Subroutine PRICEL returns:
 Original cell was already a primitive cell.
 

 Routine SETGRP: Setting up the symmetry group for a 
 triclinic supercell.


 Subroutine GETGRP returns: Found  1 space group operations
 (whereof  1 operations were pure point group operations)
 out of a pool of  2 trial point group operations.


The static configuration has the point symmetry C_1 .


Analysis of symmetry for dynamics (positions and initial velocities):
=====================================================================
 Subroutine PRICEL returns:
 Original cell was already a primitive cell.
 

 Routine SETGRP: Setting up the symmetry group for a 
 triclinic supercell.


 Subroutine GETGRP returns: Found  1 space group operations
 (whereof  1 operations were pure point group operations)
 out of a pool of  2 trial point group operations.


The dynamic configuration has the point symmetry C_1 .


 Subroutine INISYM returns: Found  1 space group operations
 (whereof  1 operations are pure point group operations),
 and found     1 'primitive' translations


----------------------------------------------------------------------------------------

                                     Primitive cell                                     

  volume of cell :     935.9826

  direct lattice vectors                    reciprocal lattice vectors
     9.783807597 -0.000000000 -0.000000000     0.102209696 -0.001076587 -0.000291496
     0.106438835 10.105159872 -0.000000000     0.000000000  0.098959345  0.004183658
     0.022783872 -0.400235855  9.467093777     0.000000000  0.000000000  0.105629037

  length of vectors
     9.783807597 10.105720423  9.475577683     0.102215781  0.099047741  0.105629037

  position of ions in fractional coordinates (direct lattice)
     0.003681621  0.005240831  0.995593405
     0.002032939  0.997943544  0.331928931
     0.006463964  0.000979944  0.668128216
     0.999413501  0.330180666  0.996988130
     0.004545933  0.337670367  0.325928644
     0.999595589  0.327909964  0.660976564
     0.000460807  0.661011864  0.999592131
     0.992880498  0.665152474  0.331504925
     0.998943017  0.659560762  0.659384209
     0.341225576  0.002368683  0.994791600
     0.329311534  0.001011496  0.326034975
     0.341071428  0.999737311  0.671286781
     0.331089390  0.341336949  0.995722566
     0.336752397  0.335452011  0.333535123
     0.332299604  0.328464020  0.663401877
     0.329615731  0.671690956  0.007071045
     0.334011866  0.669841707  0.330691591
     0.329923205  0.662171369  0.670363071
     0.664961720  0.997962925  0.005931460
     0.665967132  0.998001174  0.330527668
     0.665501655  0.992840468  0.669918457
     0.666104636  0.332738302  0.007086372
     0.665002573  0.341198611  0.333307646
     0.660795655  0.333680373  0.659656496
     0.666168879  0.662424274  0.009176635
     0.669785111  0.666104468  0.342079581
     0.662468586  0.672105715  0.661734592
     0.168536995  0.163754518  0.158973482
     0.162360671  0.166438028  0.502693206
     0.162198766  0.167965840  0.825554118
     0.159408970  0.505161028  0.166584058
     0.163096491  0.498313772  0.493123779
     0.167043366  0.498226020  0.830997047
     0.174319539  0.839012082  0.169389839
     0.175100366  0.834032455  0.498091643
     0.163396305  0.828955499  0.838986110
     0.505538640  0.167417176  0.171540542
     0.502811859  0.160289338  0.504814628
     0.504292636  0.163589646  0.832203711
     0.495358578  0.503464018  0.168627025
     0.494797008  0.504991038  0.499340360
     0.497919007  0.503658570  0.828664922
     0.497090438  0.837520867  0.160387339
     0.496005951  0.840376419  0.494515011
     0.508358625  0.836152314  0.833566928
     0.824384331  0.162479751  0.164471946
     0.829202520  0.164216301  0.505729194
     0.830032177  0.159533239  0.828077098
     0.827435381  0.502171585  0.165532505
     0.830955136  0.506557409  0.505299816
     0.823991766  0.500905135  0.837421948
     0.833405417  0.839410557  0.160763666
     0.825950493  0.827822925  0.496009471
     0.836603965  0.837984209  0.833974470

  ion indices of the primitive-cell ions
   primitive index   ion index
                 1           1
                 2           2
                 3           3
                 4           4
                 5           5
                 6           6
                 7           7
                 8           8
                 9           9
                10          10
                11          11
                12          12
                13          13
                14          14
                15          15
                16          16
                17          17
                18          18
                19          19
                20          20
                21          21
                22          22
                23          23
                24          24
                25          25
                26          26
                27          27
                28          28
                29          29
                30          30
                31          31
                32          32
                33          33
                34          34
                35          35
                36          36
                37          37
                38          38
                39          39
                40          40
                41          41
                42          42
                43          43
                44          44
                45          45
                46          46
                47          47
                48          48
                49          49
                50          50
                51          51
                52          52
                53          53
                54          54

----------------------------------------------------------------------------------------

 
 -----------------------------------------------------------------------------
|                                                                             |
|           W    W    AA    RRRRR   N    N  II  N    N   GGGG   !!!           |
|           W    W   A  A   R    R  NN   N  II  NN   N  G    G  !!!           |
|           W    W  A    A  R    R  N N  N  II  N N  N  G       !!!           |
|           W WW W  AAAAAA  RRRRR   N  N N  II  N  N N  G  GGG   !            |
|           WW  WW  A    A  R   R   N   NN  II  N   NN  G    G                |
|           W    W  A    A  R    R  N    N  II  N    N   GGGG   !!!           |
|                                                                             |
|     The requested file  could not be found or opened for reading            |
|     k-point information. Automatic k-point generation is used as a          |
|     fallback, which may lead to unwanted results.                           |
|                                                                             |
 -----------------------------------------------------------------------------

 

Automatic generation of k-mesh.
 Grid dimensions derived from KSPACING:
 generate k-points for:    4    4    4

 Generating k-lattice:

  Cartesian coordinates                     Fractional coordinates (reciprocal lattice)
     0.025552424 -0.000269147 -0.000072874     0.250000000  0.000000000  0.000000000
     0.000000000  0.024739836  0.001045914     0.000000000  0.250000000  0.000000000
     0.000000000  0.000000000  0.026407259    -0.000000000 -0.000000000  0.250000000

  Length of vectors
     0.025553945  0.024761935  0.026407259

  Shift w.r.t. Gamma in fractional coordinates (k-lattice)
     0.000000000  0.000000000  0.000000000

 
 Subroutine IBZKPT returns following result:
 ===========================================
 
 Found     36 irreducible k-points:
 
 Following reciprocal coordinates:
            Coordinates               Weight
  0.000000  0.000000  0.000000      1.000000
  0.250000  0.000000 -0.000000      2.000000
  0.500000  0.000000 -0.000000      1.000000
 -0.000000  0.250000 -0.000000      2.000000
  0.250000  0.250000  0.000000      2.000000
  0.500000  0.250000  0.000000      2.000000
 -0.250000  0.250000  0.000000      2.000000
  0.000000  0.500000  0.000000      1.000000
  0.250000  0.500000 -0.000000      2.000000
  0.500000  0.500000 -0.000000      1.000000
 -0.000000 -0.000000  0.250000      2.000000
  0.250000 -0.000000  0.250000      2.000000
  0.500000  0.000000  0.250000      2.000000
 -0.250000 -0.000000  0.250000      2.000000
  0.000000  0.250000  0.250000      2.000000
  0.250000  0.250000  0.250000      2.000000
  0.500000  0.250000  0.250000      2.000000
 -0.250000  0.250000  0.250000      2.000000
  0.000000  0.500000  0.250000      2.000000
  0.250000  0.500000  0.250000      2.000000
  0.500000  0.500000  0.250000      2.000000
 -0.250000  0.500000  0.250000      2.000000
 -0.000000 -0.250000  0.250000      2.000000
  0.250000 -0.250000  0.250000      2.000000
  0.500000 -0.250000  0.250000      2.000000
 -0.250000 -0.250000  0.250000      2.000000
 -0.000000 -0.000000  0.500000      1.000000
  0.250000 -0.000000  0.500000      2.000000
  0.500000 -0.000000  0.500000      1.000000
  0.000000  0.250000  0.500000      2.000000
  0.250000  0.250000  0.500000      2.000000
  0.500000  0.250000  0.500000      2.000000
 -0.250000  0.250000  0.500000      2.000000
  0.000000  0.500000  0.500000      1.000000
  0.250000  0.500000  0.500000      2.000000
  0.500000  0.500000  0.500000      1.000000
 
 Following cartesian coordinates:
            Coordinates               Weight
  0.000000  0.000000  0.000000      1.000000
  0.025552 -0.000269 -0.000073      2.000000
  0.051105 -0.000538 -0.000146      1.000000
  0.000000  0.024740  0.001046      2.000000
  0.025552  0.024471  0.000973      2.000000
  0.051105  0.024202  0.000900      2.000000
 -0.025552  0.025009  0.001119      2.000000
  0.000000  0.049480  0.002092      1.000000
  0.025552  0.049211  0.002019      2.000000
  0.051105  0.048941  0.001946      1.000000
  0.000000  0.000000  0.026407      2.000000
  0.025552 -0.000269  0.026334      2.000000
  0.051105 -0.000538  0.026262      2.000000
 -0.025552  0.000269  0.026480      2.000000
  0.000000  0.024740  0.027453      2.000000
  0.025552  0.024471  0.027380      2.000000
  0.051105  0.024202  0.027307      2.000000
 -0.025552  0.025009  0.027526      2.000000
  0.000000  0.049480  0.028499      2.000000
  0.025552  0.049211  0.028426      2.000000
  0.051105  0.048941  0.028353      2.000000
 -0.025552  0.049749  0.028572      2.000000
 -0.000000 -0.024740  0.025361      2.000000
  0.025552 -0.025009  0.025288      2.000000
  0.051105 -0.025278  0.025216      2.000000
 -0.025552 -0.024471  0.025434      2.000000
  0.000000  0.000000  0.052815      1.000000
  0.025552 -0.000269  0.052742      2.000000
  0.051105 -0.000538  0.052669      1.000000
  0.000000  0.024740  0.053860      2.000000
  0.025552  0.024471  0.053788      2.000000
  0.051105  0.024202  0.053715      2.000000
 -0.025552  0.025009  0.053933      2.000000
  0.000000  0.049480  0.054906      1.000000
  0.025552  0.049211  0.054833      2.000000
  0.051105  0.048941  0.054761      1.000000
 


--------------------------------------------------------------------------------------------------------




 Dimension of arrays:
   k-points           NKPTS =     36   k-points in BZ     NKDIM =     36   number of bands    NBANDS=    360
   number of dos      NEDOS =    301   number of ions     NIONS =     54
   non local maximal  LDIM  =      6   non local SUM 2l+1 LMDIM =     18
   total plane-waves  NPLWV = 448000
   max r-space proj   IRMAX =   7955   max aug-charges    IRDMAX=  27086
   dimension x,y,z NGX =    80 NGY =   80 NGZ =   70
   dimension x,y,z NGXF=   160 NGYF=  160 NGZF=  140
   support grid    NGXF=   160 NGYF=  160 NGZF=  140
   ions per type =              54
   NGX,Y,Z   is equivalent  to a cutoff of  13.59, 13.16, 12.28 a.u.
   NGXF,Y,Z  is equivalent  to a cutoff of  27.19, 26.32, 24.56 a.u.

 SYSTEM =  unknown system                          
 POSCAR =  Ta54                                    

 Startparameter for this run:
   NWRITE =      2    write-flag & timer
   PREC   = accura    normal or accurate (medium, high low for compatibility)
   ISTART =      0    job   : 0-new  1-cont  2-samecut
   ICHARG =      2    charge: 1-file 2-atom 10-const
   ISPIN  =      1    spin polarized calculation?
   LNONCOLLINEAR =      F non collinear calculations
   LSORBIT =      F    spin-orbit coupling
   INIWAV =      1    electr: 0-lowe 1-rand  2-diag
   LASPH  =      T    aspherical Exc in radial PAW
 Electronic Relaxation 1
   ENCUT  =  520.0 eV  38.22 Ry    6.18 a.u.  18.19 18.79 17.62*2*pi/ulx,y,z
   ENINI  =  520.0     initial cutoff
   ENAUG  =  377.4 eV  augmentation charge cutoff
   NELM   =    400;   NELMIN=  2; NELMDL= -5     # of ELM steps 
   EDIFF  = 0.1E-04   stopping-criterion for ELM
   LREAL  =      T    real-space projection
   NLSPLINE    = F    spline interpolate recip. space projectors
   LCOMPAT=      F    compatible to vasp.4.4
   GGA_COMPAT  = T    GGA compatible to vasp.4.4-vasp.4.6
   LMAXPAW     = -100 max onsite density
   LMAXMIX     =    2 max onsite mixed and CHGCAR
   VOSKOWN=      0    Vosko Wilk Nusair interpolation
   ROPT   =   -0.00025
 Ionic relaxation
   EDIFFG = 0.1E-03   stopping-criterion for IOM
   NSW    =      0    number of steps for IOM
   NBLOCK =      1;   KBLOCK =      1    inner block; outer block 
   IBRION =     -1    ionic relax: 0-MD 1-quasi-New 2-CG
   NFREE  =      0    steps in history (QN), initial steepest desc. (CG)
   ISIF   =      2    stress and relaxation
   IWAVPR =     10    prediction:  0-non 1-charg 2-wave 3-comb
   ISYM   =      2    0-nonsym 1-usesym 2-fastsym
   LCORR  =      T    Harris-Foulkes like correction to forces

   POTIM  = 0.5000    time-step for ionic-motion
   TEIN   =    0.0    initial temperature
   TEBEG  =    0.0;   TEEND  =   0.0 temperature during run
   SMASS  =  -3.00    Nose mass-parameter (am)
   estimated Nose-frequenzy (Omega)   =  0.10E-29 period in steps = 0.13E+47 mass=  -0.219E-26a.u.
   SCALEE = 1.0000    scale energy and forces
   NPACO  =    256;   APACO  = 10.0  distance and # of slots for P.C.
   PSTRESS=    0.0 pullay stress

  Mass of Ions in am
   POMASS = 180.95
  Ionic Valenz
   ZVAL   =  11.00
  Atomic Wigner-Seitz radii
   RWIGS  =  -1.00
  virtual crystal weights 
   VCA    =   1.00
   NELECT =     594.0000    total number of electrons
   NUPDOWN=      -1.0000    fix difference up-down

 DOS related values:
   EMIN   =  10.00;   EMAX   =-10.00  energy-range for DOS
   EFERMI =   0.00
   ISMEAR =     1;   SIGMA  =   0.10  broadening in eV -4-tet -1-fermi 0-gaus

 Electronic relaxation 2 (details)
   IALGO  =     38    algorithm
   LDIAG  =      T    sub-space diagonalisation (order eigenvalues)
   LSUBROT=      F    optimize rotation matrix (better conditioning)
   TURBO    =      0    0=normal 1=particle mesh
   IRESTART =      0    0=no restart 2=restart with 2 vectors
   NREBOOT  =      0    no. of reboots
   NMIN     =      0    reboot dimension
   EREF     =   0.00    reference energy to select bands
   IMIX   =      4    mixing-type and parameters
     AMIX     =   0.40;   BMIX     =  1.00
     AMIX_MAG =   1.60;   BMIX_MAG =  1.00
     AMIN     =   0.10
     WC   =   100.;   INIMIX=   1;  MIXPRE=   1;  MAXMIX= -45

 Intra band minimization:
   WEIMIN = 0.0000     energy-eigenvalue tresh-hold
   EBREAK =  0.69E-08  absolut break condition
   DEPER  =   0.30     relativ break condition  

   TIME   =   0.40     timestep for ELM

  volume/ion in A,a.u.               =      17.33       116.97
  Fermi-wavevector in a.u.,A,eV,Ry     =   1.406850  2.658561 26.929008  1.979226
  Thomas-Fermi vector in A             =   2.529168
 
 Write flags
   LWAVE        =      F    write WAVECAR
   LDOWNSAMPLE  =      F    k-point downsampling of WAVECAR
   LCHARG       =      F    write CHGCAR
   LVTOT        =      F    write LOCPOT, total local potential
   LVHAR        =      F    write LOCPOT, Hartree potential only
   LELF         =      F    write electronic localiz. function (ELF)
   LORBIT       =      0    0 simple, 1 ext, 2 COOP (PROOUT), +10 PAW based schemes


 Dipole corrections
   LMONO  =      F    monopole corrections only (constant potential shift)
   LDIPOL =      F    correct potential (dipole corrections)
   IDIPOL =      0    1-x, 2-y, 3-z, 4-all directions 
   EPSILON=  1.0000000 bulk dielectric constant

 Exchange correlation treatment:
   GGA     =    --    GGA type
   LEXCH   =     8    internal setting for exchange type
   LIBXC   =     F    Libxc                    
   VOSKOWN =     0    Vosko Wilk Nusair interpolation
   LHFCALC =     F    Hartree Fock is set to
   LHFONE  =     F    Hartree Fock one center treatment
   AEXX    =    0.0000 exact exchange contribution

 Linear response parameters
   LEPSILON=     F    determine dielectric tensor
   LRPA    =     F    only Hartree local field effects (RPA)
   LNABLA  =     F    use nabla operator in PAW spheres
   LVEL    =     F    velocity operator in full k-point grid
   CSHIFT  =0.1000    complex shift for real part using Kramers Kronig
   OMEGAMAX=  -1.0    maximum frequency
   DEG_THRESHOLD= 0.2000000E-02 threshold for treating states as degnerate
   RTIME   =   -0.100 relaxation time in fs
  (WPLASMAI=    0.000 imaginary part of plasma frequency in eV, 0.658/RTIME)
   DFIELD  = 0.0000000 0.0000000 0.0000000 field for delta impulse in time
 
  Optional k-point grid parameters
   LKPOINTS_OPT  =     F    use optional k-point grid
   KPOINTS_OPT_MODE=     1    mode for optional k-point grid
 
 Orbital magnetization related:
   ORBITALMAG=     F  switch on orbital magnetization
   LCHIMAG   =     F  perturbation theory with respect to B field
   DQ        =  0.001000  dq finite difference perturbation B field
   LLRAUG    =     F  two centre corrections for induced B field



--------------------------------------------------------------------------------------------------------


 Static calculation
 charge density and potential will be updated during run
 non-spin polarized calculation
 Variant of blocked Davidson
 Davidson routine will perform the subspace rotation
 perform sub-space diagonalisation
    after iterative eigenvector-optimisation
 modified Broyden-mixing scheme, WC =      100.0
 initial mixing is a Kerker type mixing with AMIX =  0.4000 and BMIX =      1.0000
 Hartree-type preconditioning will be used
 using additional bands           63
 real space projection scheme for non local part
 use partial core corrections
 calculate Harris-corrections to forces 
   (improved forces if not selfconsistent)
 use gradient corrections 
 use of overlap-Matrix (Vanderbilt PP)
 Methfessel and Paxton  Order N= 1 SIGMA  =   0.10


--------------------------------------------------------------------------------------------------------


  energy-cutoff  :      520.00
  volume of cell :      935.98
      direct lattice vectors                 reciprocal lattice vectors
     9.783807597 -0.000000000 -0.000000000     0.102209696 -0.001076587 -0.000291496
     0.106438835 10.105159872 -0.000000000     0.000000000  0.098959345  0.004183658
     0.022783872 -0.400235855  9.467093777     0.000000000  0.000000000  0.105629037

  length of vectors
     9.783807597 10.105720423  9.475577683     0.102215781  0.099047741  0.105629037


 
 k-points in units of 2pi/SCALE and weight: read from INCAR                         
   0.00000000  0.00000000  0.00000000       0.016
   0.02555242 -0.00026915 -0.00007287       0.031
   0.05110485 -0.00053829 -0.00014575       0.016
   0.00000000  0.02473984  0.00104591       0.031
   0.02555242  0.02447069  0.00097304       0.031
   0.05110485  0.02420154  0.00090017       0.031
  -0.02555242  0.02500898  0.00111879       0.031
   0.00000000  0.04947967  0.00209183       0.016
   0.02555242  0.04921053  0.00201895       0.031
   0.05110485  0.04894138  0.00194608       0.016
   0.00000000  0.00000000  0.02640726       0.031
   0.02555242 -0.00026915  0.02633439       0.031
   0.05110485 -0.00053829  0.02626151       0.031
  -0.02555242  0.00026915  0.02648013       0.031
   0.00000000  0.02473984  0.02745317       0.031
   0.02555242  0.02447069  0.02738030       0.031
   0.05110485  0.02420154  0.02730743       0.031
  -0.02555242  0.02500898  0.02752605       0.031
   0.00000000  0.04947967  0.02849909       0.031
   0.02555242  0.04921053  0.02842621       0.031
   0.05110485  0.04894138  0.02835334       0.031
  -0.02555242  0.04974882  0.02857196       0.031
  -0.00000000 -0.02473984  0.02536134       0.031
   0.02555242 -0.02500898  0.02528847       0.031
   0.05110485 -0.02527813  0.02521560       0.031
  -0.02555242 -0.02447069  0.02543422       0.031
   0.00000000  0.00000000  0.05281452       0.016
   0.02555242 -0.00026915  0.05274164       0.031
   0.05110485 -0.00053829  0.05266877       0.016
   0.00000000  0.02473984  0.05386043       0.031
   0.02555242  0.02447069  0.05378756       0.031
   0.05110485  0.02420154  0.05371468       0.031
  -0.02555242  0.02500898  0.05393331       0.031
   0.00000000  0.04947967  0.05490635       0.016
   0.02555242  0.04921053  0.05483347       0.031
   0.05110485  0.04894138  0.05476060       0.016
 
 k-points in reciprocal lattice and weights: read from INCAR                         
   0.00000000  0.00000000  0.00000000       0.016
   0.25000000  0.00000000 -0.00000000       0.031
   0.50000000  0.00000000 -0.00000000       0.016
  -0.00000000  0.25000000 -0.00000000       0.031
   0.25000000  0.25000000  0.00000000       0.031
   0.50000000  0.25000000  0.00000000       0.031
  -0.25000000  0.25000000  0.00000000       0.031
   0.00000000  0.50000000  0.00000000       0.016
   0.25000000  0.50000000 -0.00000000       0.031
   0.50000000  0.50000000 -0.00000000       0.016
  -0.00000000 -0.00000000  0.25000000       0.031
   0.25000000 -0.00000000  0.25000000       0.031
   0.50000000  0.00000000  0.25000000       0.031
  -0.25000000 -0.00000000  0.25000000       0.031
   0.00000000  0.25000000  0.25000000       0.031
   0.25000000  0.25000000  0.25000000       0.031
   0.50000000  0.25000000  0.25000000       0.031
  -0.25000000  0.25000000  0.25000000       0.031
   0.00000000  0.50000000  0.25000000       0.031
   0.25000000  0.50000000  0.25000000       0.031
   0.50000000  0.50000000  0.25000000       0.031
  -0.25000000  0.50000000  0.25000000       0.031
  -0.00000000 -0.25000000  0.25000000       0.031
   0.25000000 -0.25000000  0.25000000       0.031
   0.50000000 -0.25000000  0.25000000       0.031
  -0.25000000 -0.25000000  0.25000000       0.031
  -0.00000000 -0.00000000  0.50000000       0.016
   0.25000000 -0.00000000  0.50000000       0.031
   0.50000000 -0.00000000  0.50000000       0.016
   0.00000000  0.25000000  0.50000000       0.031
   0.25000000  0.25000000  0.50000000       0.031
   0.50000000  0.25000000  0.50000000       0.031
  -0.25000000  0.25000000  0.50000000       0.031
   0.00000000  0.50000000  0.50000000       0.016
   0.25000000  0.50000000  0.50000000       0.031
   0.50000000  0.50000000  0.50000000       0.016
 
 position of ions in fractional coordinates (direct lattice) 
   0.00368162  0.00524083  0.99559341
   0.00203294  0.99794354  0.33192893
   0.00646396  0.00097994  0.66812822
   0.99941350  0.33018067  0.99698813
   0.00454593  0.33767037  0.32592864
   0.99959559  0.32790996  0.66097656
   0.00046081  0.66101186  0.99959213
   0.99288050  0.66515247  0.33150493
   0.99894302  0.65956076  0.65938421
   0.34122558  0.00236868  0.99479160
   0.32931153  0.00101150  0.32603497
   0.34107143  0.99973731  0.67128678
   0.33108939  0.34133695  0.99572257
   0.33675240  0.33545201  0.33353512
   0.33229960  0.32846402  0.66340188
   0.32961573  0.67169096  0.00707105
   0.33401187  0.66984171  0.33069159
   0.32992321  0.66217137  0.67036307
   0.66496172  0.99796292  0.00593146
   0.66596713  0.99800117  0.33052767
   0.66550165  0.99284047  0.66991846
   0.66610464  0.33273830  0.00708637
   0.66500257  0.34119861  0.33330765
   0.66079565  0.33368037  0.65965650
   0.66616888  0.66242427  0.00917664
   0.66978511  0.66610447  0.34207958
   0.66246859  0.67210571  0.66173459
   0.16853700  0.16375452  0.15897348
   0.16236067  0.16643803  0.50269321
   0.16219877  0.16796584  0.82555412
   0.15940897  0.50516103  0.16658406
   0.16309649  0.49831377  0.49312378
   0.16704337  0.49822602  0.83099705
   0.17431954  0.83901208  0.16938984
   0.17510037  0.83403245  0.49809164
   0.16339631  0.82895550  0.83898611
   0.50553864  0.16741718  0.17154054
   0.50281186  0.16028934  0.50481463
   0.50429264  0.16358965  0.83220371
   0.49535858  0.50346402  0.16862702
   0.49479701  0.50499104  0.49934036
   0.49791901  0.50365857  0.82866492
   0.49709044  0.83752087  0.16038734
   0.49600595  0.84037642  0.49451501
   0.50835862  0.83615231  0.83356693
   0.82438433  0.16247975  0.16447195
   0.82920252  0.16421630  0.50572919
   0.83003218  0.15953324  0.82807710
   0.82743538  0.50217158  0.16553250
   0.83095514  0.50655741  0.50529982
   0.82399177  0.50090513  0.83742195
   0.83340542  0.83941056  0.16076367
   0.82595049  0.82782293  0.49600947
   0.83660397  0.83798421  0.83397447
 
 position of ions in cartesian coordinates  (Angst):
   0.05926157 -0.34551274  9.42537613
   0.13367246  9.95152920  3.14240231
   0.07856903 -0.25750638  6.32523247
   9.83592870  2.93749802  9.43858013
   0.08784370  3.28176471  3.08559704
   9.82981288  3.04903609  6.25752711
   0.09764036  6.27955796  9.46323244
   9.79250278  6.58879193  3.13838821
   9.85869248  6.40105774  6.24245214
   3.36140271 -0.37421534  9.41778536
   3.22945669 -0.12026955  3.08660368
   3.45868262  9.83383232  6.35513491
   3.29833281  3.05074057  9.42659891
   3.33802500  3.25630349  3.15760829
   3.30123158  3.05366422  6.28048778
   3.29655200  6.78471441  0.06694225
   3.34673944  6.63650290  3.13068831
   3.31365938  6.42304421  6.34639006
   6.61221468 10.08220092  0.05615368
   6.62945107  9.95267239  3.12913643
   6.63208026  9.76468627  6.34218085
   6.55261733  3.35953751  0.06708735
   6.55016805  3.31446484  3.15545474
   6.51564363  3.10787533  6.24502991
   6.58838488  6.69023037  0.08687607
   6.63174194  6.59417963  3.23849947
   6.56808022  6.52688579  6.26470344
   1.66998541  1.59113870  1.50501686
   1.61767433  1.48068703  4.75904372
   1.62360893  1.36690530  7.81559825
   1.61719087  5.03806004  1.57706690
   1.65997990  4.83817451  4.66844906
   1.70628408  4.70205877  7.86712697
   1.79867166  8.41055534  1.60362949
   1.81327019  8.22867716  4.71548029
   1.70598642  8.04093552  7.94276018
   4.96782083  1.62312065  1.62399040
   4.94797713  1.41770447  4.77912742
   4.97027524  1.32002176  7.87855057
   4.90392311  5.02009381  1.59640785
   4.90612629  4.90316126  4.72730201
   4.94403279  4.75788896  7.84504852
   4.95623620  8.39908950  1.51840198
   4.95354245  8.29421543  4.68161999
   5.08167393  8.11582944  7.89145627
   8.08665914  1.57605629  1.55707134
   8.14175937  1.45702102  4.78778571
   8.15672246  1.28068274  7.83948354
   8.15269060  5.00827210  1.56711175
   8.19533524  4.91660450  4.78372075
   8.13417237  4.72656018  7.92795211
   8.24688696  8.41803450  1.52196470
   8.18035423  8.16676223  4.69576817
   8.29336746  8.13417792  7.89531451
 


--------------------------------------------------------------------------------------------------------


 k-point   1 :   0.0000 0.0000 0.0000  plane waves:   25223
 k-point   2 :   0.2500 0.0000-0.0000  plane waves:   25204
 k-point   3 :   0.5000 0.0000-0.0000  plane waves:   25226
 k-point   4 :  -0.0000 0.2500-0.0000  plane waves:   25206
 k-point   5 :   0.2500 0.2500 0.0000  plane waves:   25177
 k-point   6 :   0.5000 0.2500 0.0000  plane waves:   25209
 k-point   7 :  -0.2500 0.2500 0.0000  plane waves:   25194
 k-point   8 :   0.0000 0.5000 0.0000  plane waves:   25240
 k-point   9 :   0.2500 0.5000-0.0000  plane waves:   25213
 k-point  10 :   0.5000 0.5000-0.0000  plane waves:   25204
 k-point  11 :  -0.0000-0.0000 0.2500  plane waves:   25176
 k-point  12 :   0.2500-0.0000 0.2500  plane waves:   25209
 k-point  13 :   0.5000 0.0000 0.2500  plane waves:   25215
 k-point  14 :  -0.2500-0.0000 0.2500  plane waves:   25210
 k-point  15 :   0.0000 0.2500 0.2500  plane waves:   25205
 k-point  16 :   0.2500 0.2500 0.2500  plane waves:   25188
 k-point  17 :   0.5000 0.2500 0.2500  plane waves:   25206
 k-point  18 :  -0.2500 0.2500 0.2500  plane waves:   25224
 k-point  19 :   0.0000 0.5000 0.2500  plane waves:   25206
 k-point  20 :   0.2500 0.5000 0.2500  plane waves:   25223
 k-point  21 :   0.5000 0.5000 0.2500  plane waves:   25204
 k-point  22 :  -0.2500 0.5000 0.2500  plane waves:   25194
 k-point  23 :  -0.0000-0.2500 0.2500  plane waves:   25205
 k-point  24 :   0.2500-0.2500 0.2500  plane waves:   25192
 k-point  25 :   0.5000-0.2500 0.2500  plane waves:   25205
 k-point  26 :  -0.2500-0.2500 0.2500  plane waves:   25185
 k-point  27 :  -0.0000-0.0000 0.5000  plane waves:   25198
 k-point  28 :   0.2500-0.0000 0.5000  plane waves:   25204
 k-point  29 :   0.5000-0.0000 0.5000  plane waves:   25200
 k-point  30 :   0.0000 0.2500 0.5000  plane waves:   25183
 k-point  31 :   0.2500 0.2500 0.5000  plane waves:   25182
 k-point  32 :   0.5000 0.2500 0.5000  plane waves:   25195
 k-point  33 :  -0.2500 0.2500 0.5000  plane waves:   25195
 k-point  34 :   0.0000 0.5000 0.5000  plane waves:   25184
 k-point  35 :   0.2500 0.5000 0.5000  plane waves:   25211
 k-point  36 :   0.5000 0.5000 0.5000  plane waves:   25214

 maximum and minimum number of plane-waves per node :      1610     1541

 maximum number of plane-waves:     25240
 maximum index in each direction: 
   IXMAX=   18   IYMAX=   19   IZMAX=   17
   IXMIN=  -18   IYMIN=  -19   IZMIN=  -18


 real space projection operators:
  total allocation   :      58262.20 KBytes
  max/ min on nodes  :       3659.06       3623.77


 parallel 3D FFT for wavefunctions:
    minimum data exchange during FFTs selected (reduces bandwidth)
 parallel 3D FFT for charge:
    minimum data exchange during FFTs selected (reduces bandwidth)


 total amount of memory used by VASP MPI-rank0   104686. kBytes
=======================================================================

   base      :      30000. kBytes
   nonlr-proj:      11777. kBytes
   fftplans  :       2319. kBytes
   grid      :       3297. kBytes
   one-center:         62. kBytes
   wavefun   :      57231. kBytes
 
     INWAV:  cpu time      0.0000: real time      0.0000
 Broyden mixing: mesh for mixing (old mesh)
   NGX = 37   NGY = 37   NGZ = 35
  (NGX  =160   NGY  =160   NGZ  =140)
  gives a total of  47915 points

 initial charge density was supplied:
 charge density of overlapping atoms calculated
 number of electron     594.0000000 magnetization 
 keeping initial charge density in first step


--------------------------------------------------------------------------------------------------------


 Maximum index for non-local projection operator          550
 Maximum index for augmentation-charges         1020 (set IRDMAX)


--------------------------------------------------------------------------------------------------------


 First call to EWALD:  gamma=   0.181
 Maximum number of real-space cells 3x 3x 3
 Maximum number of reciprocal cells 3x 3x 3

    FEWALD:  cpu time      0.0038: real time      0.0043


--------------------------------------- Iteration      1(   1)  ---------------------------------------


    POTLOK:  cpu time      0.0305: real time      0.0366
    SETDIJ:  cpu time      0.1258: real time      0.1283
     EDDAV:  cpu time     22.1583: real time     22.3127
       DOS:  cpu time      0.0088: real time      0.0114
    --------------------------------------------
      LOOP:  cpu time     22.3234: real time     22.4892

 eigenvalue-minimisations  : 25920
 total energy-change (2. order) : 0.6875043E+04  (-0.3227131E+05)
 number of electron     594.0000000 magnetization 
 augmentation part      594.0000000 magnetization 

 Free energy of the ion-electron system (eV)
  ---------------------------------------------------
  alpha Z        PSCENC =      7142.24044989
  Ewald energy   TEWEN  =    -52429.04065269
  -Hartree energ DENC   =     -6647.73408735
  -exchange      EXHF   =         0.00000000
  -V(xc)+E(xc)   XCENC  =      1282.13824067
  PAW double counting   =     44331.21465257   -43439.79610504
  entropy T*S    EENTRO =        -0.00242779
  eigenvalues    EBANDS =        87.39764815
  atomic energy  EATOM  =     56548.62480702
  Solvation  Ediel_sol  =         0.00000000
  ---------------------------------------------------
  free energy    TOTEN  =      6875.04252544 eV

  energy without entropy =     6875.04495323  energy(sigma->0) =     6875.04333470


--------------------------------------------------------------------------------------------------------




--------------------------------------- Iteration      1(   2)  ---------------------------------------


     EDDAV:  cpu time     22.4585: real time     22.5373
       DOS:  cpu time      0.0073: real time      0.0073
    --------------------------------------------
      LOOP:  cpu time     22.4658: real time     22.5446

 eigenvalue-minimisations  : 26064
 total energy-change (2. order) :-0.7069324E+04  (-0.6871004E+04)
 number of electron     594.0000000 magnetization 
 augmentation part      594.0000000 magnetization 

 Free energy of the ion-electron system (eV)
  ---------------------------------------------------
  alpha Z        PSCENC =      7142.24044989
  Ewald energy   TEWEN  =    -52429.04065269
  -Hartree energ DENC   =     -6647.73408735
  -exchange      EXHF   =         0.00000000
  -V(xc)+E(xc)   XCENC  =      1282.13824067
  PAW double counting   =     44331.21465257   -43439.79610504
  entropy T*S    EENTRO =         0.00411412
  eigenvalues    EBANDS =     -6981.93275607
  atomic energy  EATOM  =     56548.62480702
  Solvation  Ediel_sol  =         0.00000000
  ---------------------------------------------------
  free energy    TOTEN  =      -194.28133686 eV

  energy without entropy =     -194.28545099  energy(sigma->0) =     -194.28270824


--------------------------------------------------------------------------------------------------------




--------------------------------------- Iteration      1(   3)  ---------------------------------------


     EDDAV:  cpu time     26.4247: real time     26.5738
       DOS:  cpu time      0.0079: real time      0.0079
    --------------------------------------------
      LOOP:  cpu time     26.4326: real time     26.5818

 eigenvalue-minimisations  : 31836
 total energy-change (2. order) :-0.4396177E+03  (-0.4080011E+03)
 number of electron     594.0000000 magnetization 
 augmentation part      594.0000000 magnetization 

 Free energy of the ion-electron system (eV)
  ---------------------------------------------------
  alpha Z        PSCENC =      7142.24044989
  Ewald energy   TEWEN  =    -52429.04065269
  -Hartree energ DENC   =     -6647.73408735
  -exchange      EXHF   =         0.00000000
  -V(xc)+E(xc)   XCENC  =      1282.13824067
  PAW double counting   =     44331.21465257   -43439.79610504
  entropy T*S    EENTRO =        -0.00012368
  eigenvalues    EBANDS =     -7421.54625004
  atomic energy  EATOM  =     56548.62480702
  Solvation  Ediel_sol  =         0.00000000
  ---------------------------------------------------
  free energy    TOTEN  =      -633.89906864 eV

  energy without entropy =     -633.89894495  energy(sigma->0) =     -633.89902741


--------------------------------------------------------------------------------------------------------




--------------------------------------- Iteration      1(   4)  ---------------------------------------


     EDDAV:  cpu time     25.2590: real time     25.3360
       DOS:  cpu time      0.0079: real time      0.0079
    --------------------------------------------
      LOOP:  cpu time     25.2669: real time     25.3439

 eigenvalue-minimisations  : 30444
 total energy-change (2. order) :-0.2174570E+02  (-0.2055502E+02)
 number of electron     594.0000000 magnetization 
 augmentation part      594.0000000 magnetization 

 Free energy of the ion-electron system (eV)
  ---------------------------------------------------
  alpha Z        PSCENC =      7142.24044989
  Ewald energy   TEWEN  =    -52429.04065269
  -Hartree energ DENC   =     -6647.73408735
  -exchange      EXHF   =         0.00000000
  -V(xc)+E(xc)   XCENC  =      1282.13824067
  PAW double counting   =     44331.21465257   -43439.79610504
  entropy T*S    EENTRO =         0.00004553
  eigenvalues    EBANDS =     -7443.29212408
  atomic energy  EATOM  =     56548.62480702
  Solvation  Ediel_sol  =         0.00000000
  ---------------------------------------------------
  free energy    TOTEN  =      -655.64477346 eV

  energy without entropy =     -655.64481900  energy(sigma->0) =     -655.64478864


--------------------------------------------------------------------------------------------------------




--------------------------------------- Iteration      1(   5)  ---------------------------------------


     EDDAV:  cpu time     26.9320: real time     27.0525
       DOS:  cpu time      0.0078: real time      0.0079
    CHARGE:  cpu time      0.5583: real time      0.5639
    MIXING:  cpu time      0.0035: real time      0.0061
    --------------------------------------------
      LOOP:  cpu time     27.5017: real time     27.6304

 eigenvalue-minimisations  : 32772
 total energy-change (2. order) :-0.9180865E+00  (-0.9109614E+00)
 number of electron     594.0000010 magnetization 
 augmentation part      177.1178047 magnetization 

 Broyden mixing:
  rms(total) = 0.10709E+02    rms(broyden)= 0.10709E+02
  rms(prec ) = 0.10956E+02
  weight for this iteration     100.00

 Free energy of the ion-electron system (eV)
  ---------------------------------------------------
  alpha Z        PSCENC =      7142.24044989
  Ewald energy   TEWEN  =    -52429.04065269
  -Hartree energ DENC   =     -6647.73408735
  -exchange      EXHF   =         0.00000000
  -V(xc)+E(xc)   XCENC  =      1282.13824067
  PAW double counting   =     44331.21465257   -43439.79610504
  entropy T*S    EENTRO =         0.00002401
  eigenvalues    EBANDS =     -7444.21018909
  atomic energy  EATOM  =     56548.62480702
  Solvation  Ediel_sol  =         0.00000000
  ---------------------------------------------------
  free energy    TOTEN  =      -656.56285999 eV

  energy without entropy =     -656.56288400  energy(sigma->0) =     -656.56286799


--------------------------------------------------------------------------------------------------------




--------------------------------------- Iteration      1(   6)  ---------------------------------------


    POTLOK:  cpu time      0.0312: real time      0.0418
    SETDIJ:  cpu time      0.1211: real time      0.1214
     EDDAV:  cpu time     25.2367: real time     25.3062
       DOS:  cpu time      0.0076: real time      0.0076
    CHARGE:  cpu time      0.5532: real time      0.5545
    MIXING:  cpu time      0.0017: real time      0.0035
    --------------------------------------------
      LOOP:  cpu time     25.9515: real time     26.0350

 eigenvalue-minimisations  : 30288
 total energy-change (2. order) : 0.1741553E+02  (-0.2409792E+01)
 number of electron     594.0000010 magnetization 
 augmentation part      179.6187295 magnetization 

 Broyden mixing:
  rms(total) = 0.54374E+01    rms(broyden)= 0.54374E+01
  rms(prec ) = 0.56234E+01
  weight for this iteration     100.00

 eigenvalues of (default mixing * dielectric matrix)
  average eigenvalue GAMMA=   2.0139
  2.0139

 Free energy of the ion-electron system (eV)
  ---------------------------------------------------
  alpha Z        PSCENC =      7142.24044989
  Ewald energy   TEWEN  =    -52429.04065269
  -Hartree energ DENC   =     -6236.27051191
  -exchange      EXHF   =         0.00000000
  -V(xc)+E(xc)   XCENC  =      1262.01850978
  PAW double counting   =     63114.52968931   -62299.98995322
  entropy T*S    EENTRO =         0.00153025
  eigenvalues    EBANDS =     -7741.26120277
  atomic energy  EATOM  =     56548.62480702
  Solvation  Ediel_sol  =         0.00000000
  ---------------------------------------------------
  free energy    TOTEN  =      -639.14733435 eV

  energy without entropy =     -639.14886460  energy(sigma->0) =     -639.14784443


--------------------------------------------------------------------------------------------------------




--------------------------------------- Iteration      1(   7)  ---------------------------------------


    POTLOK:  cpu time      0.0236: real time      0.0378
    SETDIJ:  cpu time      0.1206: real time      0.1209
     EDDAV:  cpu time     26.6909: real time     26.8248
       DOS:  cpu time      0.0081: real time      0.0081
    CHARGE:  cpu time      0.5621: real time      0.5635
    MIXING:  cpu time      0.0014: real time      0.0018
    --------------------------------------------
      LOOP:  cpu time     27.4068: real time     27.5570

 eigenvalue-minimisations  : 32496
 total energy-change (2. order) :-0.2582720E+01  (-0.4662417E+01)
 number of electron     594.0000010 magnetization 
 augmentation part      181.7846499 magnetization 

 Broyden mixing:
  rms(total) = 0.13757E+01    rms(broyden)= 0.13757E+01
  rms(prec ) = 0.42052E+01
  weight for this iteration     100.00

 eigenvalues of (default mixing * dielectric matrix)
  average eigenvalue GAMMA=   1.2308
  2.0423  0.4193

 Free energy of the ion-electron system (eV)
  ---------------------------------------------------
  alpha Z        PSCENC =      7142.24044989
  Ewald energy   TEWEN  =    -52429.04065269
  -Hartree energ DENC   =     -5867.85139260
  -exchange      EXHF   =         0.00000000
  -V(xc)+E(xc)   XCENC  =      1244.95228354
  PAW double counting   =     87634.56226294   -86894.36007560
  entropy T*S    EENTRO =        -0.00399894
  eigenvalues    EBANDS =     -8020.85373811
  atomic energy  EATOM  =     56548.62480702
  Solvation  Ediel_sol  =         0.00000000
  ---------------------------------------------------
  free energy    TOTEN  =      -641.73005455 eV

  energy without entropy =     -641.72605561  energy(sigma->0) =     -641.72872157


--------------------------------------------------------------------------------------------------------




--------------------------------------- Iteration      1(   8)  ---------------------------------------


    POTLOK:  cpu time      0.0272: real time      0.0391
    SETDIJ:  cpu time      0.1212: real time      0.1215
     EDDAV:  cpu time     26.7957: real time     26.8714
       DOS:  cpu time      0.0076: real time      0.0076
    CHARGE:  cpu time      0.5605: real time      0.5619
    MIXING:  cpu time      0.0009: real time      0.0009
    --------------------------------------------
      LOOP:  cpu time     27.5131: real time     27.6024

 eigenvalue-minimisations  : 32820
 total energy-change (2. order) : 0.8526783E+01  (-0.2374853E+01)
 number of electron     594.0000010 magnetization 
 augmentation part      182.1277166 magnetization 

 Broyden mixing:
  rms(total) = 0.33529E+00    rms(broyden)= 0.33529E+00
  rms(prec ) = 0.65940E+00
  weight for this iteration     100.00

 eigenvalues of (default mixing * dielectric matrix)
  average eigenvalue GAMMA=   1.0430
  2.0532  0.7286  0.3473

 Free energy of the ion-electron system (eV)
  ---------------------------------------------------
  alpha Z        PSCENC =      7142.24044989
  Ewald energy   TEWEN  =    -52429.04065269
  -Hartree energ DENC   =     -5849.93380019
  -exchange      EXHF   =         0.00000000
  -V(xc)+E(xc)   XCENC  =      1243.95602607
  PAW double counting   =     90206.27551693   -89472.08751579
  entropy T*S    EENTRO =         0.00006109
  eigenvalues    EBANDS =     -8023.23816358
  atomic energy  EATOM  =     56548.62480702
  Solvation  Ediel_sol  =         0.00000000
  ---------------------------------------------------
  free energy    TOTEN  =      -633.20327124 eV

  energy without entropy =     -633.20333233  energy(sigma->0) =     -633.20329160


--------------------------------------------------------------------------------------------------------




--------------------------------------- Iteration      1(   9)  ---------------------------------------


    POTLOK:  cpu time      0.0266: real time      0.0384
    SETDIJ:  cpu time      0.1207: real time      0.1210
     EDDAV:  cpu time     26.5602: real time     26.6943
       DOS:  cpu time      0.0079: real time      0.0079
    CHARGE:  cpu time      0.5585: real time      0.5607
    MIXING:  cpu time      0.0008: real time      0.0008
    --------------------------------------------
      LOOP:  cpu time     27.2747: real time     27.4231

 eigenvalue-minimisations  : 32616
 total energy-change (2. order) :-0.1286910E-01  (-0.4067334E+00)
 number of electron     594.0000011 magnetization 
 augmentation part      182.2512259 magnetization 

 Broyden mixing:
  rms(total) = 0.24514E+00    rms(broyden)= 0.24514E+00
  rms(prec ) = 0.33818E+00
  weight for this iteration     100.00

 eigenvalues of (default mixing * dielectric matrix)
  average eigenvalue GAMMA=   1.0059
  1.9890  1.3152  0.4081  0.3112

 Free energy of the ion-electron system (eV)
  ---------------------------------------------------
  alpha Z        PSCENC =      7142.24044989
  Ewald energy   TEWEN  =    -52429.04065269
  -Hartree energ DENC   =     -5854.24072412
  -exchange      EXHF   =         0.00000000
  -V(xc)+E(xc)   XCENC  =      1244.15981449
  PAW double counting   =     91055.46959736   -90322.15642883
  entropy T*S    EENTRO =        -0.00087734
  eigenvalues    EBANDS =     -8018.27212612
  atomic energy  EATOM  =     56548.62480702
  Solvation  Ediel_sol  =         0.00000000
  ---------------------------------------------------
  free energy    TOTEN  =      -633.21614034 eV

  energy without entropy =     -633.21526299  energy(sigma->0) =     -633.21584789


--------------------------------------------------------------------------------------------------------




--------------------------------------- Iteration      1(  10)  ---------------------------------------


    POTLOK:  cpu time      0.0270: real time      0.0406
    SETDIJ:  cpu time      0.1205: real time      0.1208
     EDDAV:  cpu time     25.9703: real time     26.0408
       DOS:  cpu time      0.0070: real time      0.0070
    CHARGE:  cpu time      0.5559: real time      0.5572
    MIXING:  cpu time      0.0010: real time      0.0013
    --------------------------------------------
      LOOP:  cpu time     26.6818: real time     26.7677

 eigenvalue-minimisations  : 31368
 total energy-change (2. order) : 0.4083250E-01  (-0.4722638E-01)
 number of electron     594.0000010 magnetization 
 augmentation part      182.1826504 magnetization 

 Broyden mixing:
  rms(total) = 0.15999E+00    rms(broyden)= 0.15999E+00
  rms(prec ) = 0.19471E+00
  weight for this iteration     100.00

 eigenvalues of (default mixing * dielectric matrix)
  average eigenvalue GAMMA=   1.0505
  1.9364  1.9364  0.6179  0.3808  0.3808

 Free energy of the ion-electron system (eV)
  ---------------------------------------------------
  alpha Z        PSCENC =      7142.24044989
  Ewald energy   TEWEN  =    -52429.04065269
  -Hartree energ DENC   =     -5866.45455872
  -exchange      EXHF   =         0.00000000
  -V(xc)+E(xc)   XCENC  =      1244.77670999
  PAW double counting   =     91634.46129436   -90900.95325563
  entropy T*S    EENTRO =         0.00049985
  eigenvalues    EBANDS =     -8006.83060191
  atomic energy  EATOM  =     56548.62480702
  Solvation  Ediel_sol  =         0.00000000
  ---------------------------------------------------
  free energy    TOTEN  =      -633.17530783 eV

  energy without entropy =     -633.17580768  energy(sigma->0) =     -633.17547445


--------------------------------------------------------------------------------------------------------




--------------------------------------- Iteration      1(  11)  ---------------------------------------


    POTLOK:  cpu time      0.0262: real time      0.0384
    SETDIJ:  cpu time      0.1222: real time      0.1224
     EDDAV:  cpu time     26.0642: real time     26.1811
       DOS:  cpu time      0.0076: real time      0.0076
    CHARGE:  cpu time      0.5565: real time      0.5578
    MIXING:  cpu time      0.0009: real time      0.0009
    --------------------------------------------
      LOOP:  cpu time     26.7776: real time     26.9082

 eigenvalue-minimisations  : 31548
 total energy-change (2. order) : 0.1527558E-01  (-0.1359282E-01)
 number of electron     594.0000010 magnetization 
 augmentation part      182.0857101 magnetization 

 Broyden mixing:
  rms(total) = 0.85036E-01    rms(broyden)= 0.85036E-01
  rms(prec ) = 0.14313E+00
  weight for this iteration     100.00

 eigenvalues of (default mixing * dielectric matrix)
  average eigenvalue GAMMA=   1.0968
  2.4075  1.9787  0.9211  0.5360  0.3485  0.3887

 Free energy of the ion-electron system (eV)
  ---------------------------------------------------
  alpha Z        PSCENC =      7142.24044989
  Ewald energy   TEWEN  =    -52429.04065269
  -Hartree energ DENC   =     -5878.78962530
  -exchange      EXHF   =         0.00000000
  -V(xc)+E(xc)   XCENC  =      1245.41305614
  PAW double counting   =     92520.29106693   -91786.87247007
  entropy T*S    EENTRO =         0.00044369
  eigenvalues    EBANDS =     -7995.02710787
  atomic energy  EATOM  =     56548.62480702
  Solvation  Ediel_sol  =         0.00000000
  ---------------------------------------------------
  free energy    TOTEN  =      -633.16003225 eV

  energy without entropy =     -633.16047594  energy(sigma->0) =     -633.16018015


--------------------------------------------------------------------------------------------------------




--------------------------------------- Iteration      1(  12)  ---------------------------------------


    POTLOK:  cpu time      0.0272: real time      0.0412
    SETDIJ:  cpu time      0.1204: real time      0.1207
     EDDAV:  cpu time     26.1166: real time     26.1796
       DOS:  cpu time      0.0080: real time      0.0080
    CHARGE:  cpu time      0.5620: real time      0.5634
    MIXING:  cpu time      0.0009: real time      0.0009
    --------------------------------------------
      LOOP:  cpu time     26.8351: real time     26.9139

 eigenvalue-minimisations  : 31692
 total energy-change (2. order) : 0.1466957E-02  (-0.5862013E-02)
 number of electron     594.0000010 magnetization 
 augmentation part      182.0578582 magnetization 

 Broyden mixing:
  rms(total) = 0.51023E-01    rms(broyden)= 0.51023E-01
  rms(prec ) = 0.10017E+00
  weight for this iteration     100.00

 eigenvalues of (default mixing * dielectric matrix)
  average eigenvalue GAMMA=   1.0284
  2.5255  1.9208  1.0260  0.6025  0.4343  0.3450  0.3450

 Free energy of the ion-electron system (eV)
  ---------------------------------------------------
  alpha Z        PSCENC =      7142.24044989
  Ewald energy   TEWEN  =    -52429.04065269
  -Hartree energ DENC   =     -5881.63415460
  -exchange      EXHF   =         0.00000000
  -V(xc)+E(xc)   XCENC  =      1245.57687460
  PAW double counting   =     93286.21060608   -92553.38222501
  entropy T*S    EENTRO =         0.00020286
  eigenvalues    EBANDS =     -7991.75447345
  atomic energy  EATOM  =     56548.62480702
  Solvation  Ediel_sol  =         0.00000000
  ---------------------------------------------------
  free energy    TOTEN  =      -633.15856530 eV

  energy without entropy =     -633.15876816  energy(sigma->0) =     -633.15863292


--------------------------------------------------------------------------------------------------------




--------------------------------------- Iteration      1(  13)  ---------------------------------------


    POTLOK:  cpu time      0.0292: real time      0.0409
    SETDIJ:  cpu time      0.1206: real time      0.1209
     EDDAV:  cpu time     25.8759: real time     25.9863
       DOS:  cpu time      0.0075: real time      0.0075
    CHARGE:  cpu time      0.5562: real time      0.5600
    MIXING:  cpu time      0.0010: real time      0.0010
    --------------------------------------------
      LOOP:  cpu time     26.5904: real time     26.7165

 eigenvalue-minimisations  : 31452
 total energy-change (2. order) : 0.3363570E-02  (-0.1664665E-02)
 number of electron     594.0000010 magnetization 
 augmentation part      182.0592598 magnetization 

 Broyden mixing:
  rms(total) = 0.20292E-01    rms(broyden)= 0.20292E-01
  rms(prec ) = 0.32327E-01
  weight for this iteration     100.00

 eigenvalues of (default mixing * dielectric matrix)
  average eigenvalue GAMMA=   1.0108
  2.5583  1.8675  1.1360  0.8946  0.5693  0.3698  0.3698  0.3209

 Free energy of the ion-electron system (eV)
  ---------------------------------------------------
  alpha Z        PSCENC =      7142.24044989
  Ewald energy   TEWEN  =    -52429.04065269
  -Hartree energ DENC   =     -5879.97427954
  -exchange      EXHF   =         0.00000000
  -V(xc)+E(xc)   XCENC  =      1245.50669327
  PAW double counting   =     93680.74095209   -92948.34305512
  entropy T*S    EENTRO =         0.00037291
  eigenvalues    EBANDS =     -7992.91048956
  atomic energy  EATOM  =     56548.62480702
  Solvation  Ediel_sol  =         0.00000000
  ---------------------------------------------------
  free energy    TOTEN  =      -633.15520173 eV

  energy without entropy =     -633.15557463  energy(sigma->0) =     -633.15532603


--------------------------------------------------------------------------------------------------------




--------------------------------------- Iteration      1(  14)  ---------------------------------------


    POTLOK:  cpu time      0.0284: real time      0.0409
    SETDIJ:  cpu time      0.1157: real time      0.1205
     EDDAV:  cpu time     26.0786: real time     26.2038
       DOS:  cpu time      0.0075: real time      0.0076
    CHARGE:  cpu time      0.5590: real time      0.5603
    MIXING:  cpu time      0.0010: real time      0.0010
    --------------------------------------------
      LOOP:  cpu time     26.7902: real time     26.9341

 eigenvalue-minimisations  : 31836
 total energy-change (2. order) : 0.4386451E-03  (-0.3626510E-03)
 number of electron     594.0000010 magnetization 
 augmentation part      182.0648739 magnetization 

 Broyden mixing:
  rms(total) = 0.13162E-01    rms(broyden)= 0.13162E-01
  rms(prec ) = 0.17994E-01
  weight for this iteration     100.00

 eigenvalues of (default mixing * dielectric matrix)
  average eigenvalue GAMMA=   1.0335
  2.6178  1.7612  1.7612  1.0511  0.6032  0.4484  0.3675  0.3675  0.3232

 Free energy of the ion-electron system (eV)
  ---------------------------------------------------
  alpha Z        PSCENC =      7142.24044989
  Ewald energy   TEWEN  =    -52429.04065269
  -Hartree energ DENC   =     -5879.11647431
  -exchange      EXHF   =         0.00000000
  -V(xc)+E(xc)   XCENC  =      1245.46729959
  PAW double counting   =     93786.35382992   -93053.99152089
  entropy T*S    EENTRO =         0.00028693
  eigenvalues    EBANDS =     -7993.69278855
  atomic energy  EATOM  =     56548.62480702
  Solvation  Ediel_sol  =         0.00000000
  ---------------------------------------------------
  free energy    TOTEN  =      -633.15476308 eV

  energy without entropy =     -633.15505001  energy(sigma->0) =     -633.15485873


--------------------------------------------------------------------------------------------------------




--------------------------------------- Iteration      1(  15)  ---------------------------------------


    POTLOK:  cpu time      0.0294: real time      0.0412
    SETDIJ:  cpu time      0.1207: real time      0.1211
     EDDAV:  cpu time     25.9020: real time     25.9711
       DOS:  cpu time      0.0080: real time      0.0080
    CHARGE:  cpu time      0.5556: real time      0.5569
    MIXING:  cpu time      0.0009: real time      0.0009
    --------------------------------------------
      LOOP:  cpu time     26.6166: real time     26.6992

 eigenvalue-minimisations  : 31488
 total energy-change (2. order) : 0.6514165E-04  (-0.1131560E-03)
 number of electron     594.0000010 magnetization 
 augmentation part      182.0711987 magnetization 

 Broyden mixing:
  rms(total) = 0.86045E-02    rms(broyden)= 0.86045E-02
  rms(prec ) = 0.12864E-01
  weight for this iteration     100.00

 eigenvalues of (default mixing * dielectric matrix)
  average eigenvalue GAMMA=   1.0478
  2.7270  2.0871  1.8854  1.0570  0.6862  0.5533  0.4129  0.3777  0.3705  0.3207

 Free energy of the ion-electron system (eV)
  ---------------------------------------------------
  alpha Z        PSCENC =      7142.24044989
  Ewald energy   TEWEN  =    -52429.04065269
  -Hartree energ DENC   =     -5878.49761061
  -exchange      EXHF   =         0.00000000
  -V(xc)+E(xc)   XCENC  =      1245.43870017
  PAW double counting   =     93886.43683418   -93154.00886713
  entropy T*S    EENTRO =         0.00029020
  eigenvalues    EBANDS =     -7994.34864896
  atomic energy  EATOM  =     56548.62480702
  Solvation  Ediel_sol  =         0.00000000
  ---------------------------------------------------
  free energy    TOTEN  =      -633.15469794 eV

  energy without entropy =     -633.15498814  energy(sigma->0) =     -633.15479467


--------------------------------------------------------------------------------------------------------




--------------------------------------- Iteration      1(  16)  ---------------------------------------


    POTLOK:  cpu time      0.0309: real time      0.0411
    SETDIJ:  cpu time      0.1203: real time      0.1206
     EDDAV:  cpu time     26.1918: real time     26.3049
       DOS:  cpu time      0.0075: real time      0.0076
    CHARGE:  cpu time      0.5572: real time      0.5586
    MIXING:  cpu time      0.0011: real time      0.0011
    --------------------------------------------
      LOOP:  cpu time     26.9090: real time     27.0339

 eigenvalue-minimisations  : 31620
 total energy-change (2. order) : 0.5907279E-04  (-0.4331811E-04)
 number of electron     594.0000010 magnetization 
 augmentation part      182.0749133 magnetization 

 Broyden mixing:
  rms(total) = 0.50212E-02    rms(broyden)= 0.50212E-02
  rms(prec ) = 0.68404E-02
  weight for this iteration     100.00

 eigenvalues of (default mixing * dielectric matrix)
  average eigenvalue GAMMA=   1.0365
  2.7637  2.3218  1.7919  0.9990  0.9990  0.6042  0.4923  0.3982  0.3573  0.3573
  0.3166

 Free energy of the ion-electron system (eV)
  ---------------------------------------------------
  alpha Z        PSCENC =      7142.24044989
  Ewald energy   TEWEN  =    -52429.04065269
  -Hartree energ DENC   =     -5878.23529538
  -exchange      EXHF   =         0.00000000
  -V(xc)+E(xc)   XCENC  =      1245.42677089
  PAW double counting   =     93957.33283923   -93224.80548884
  entropy T*S    EENTRO =         0.00024362
  eigenvalues    EBANDS =     -7994.69831261
  atomic energy  EATOM  =     56548.62480702
  Solvation  Ediel_sol  =         0.00000000
  ---------------------------------------------------
  free energy    TOTEN  =      -633.15463887 eV

  energy without entropy =     -633.15488249  energy(sigma->0) =     -633.15472007


--------------------------------------------------------------------------------------------------------




--------------------------------------- Iteration      1(  17)  ---------------------------------------


    POTLOK:  cpu time      0.0295: real time      0.0403
    SETDIJ:  cpu time      0.1212: real time      0.1215
     EDDAV:  cpu time     22.5691: real time     22.6274
       DOS:  cpu time      0.0075: real time      0.0075
    CHARGE:  cpu time      0.5675: real time      0.5689
    MIXING:  cpu time      0.0012: real time      0.0012
    --------------------------------------------
      LOOP:  cpu time     23.2959: real time     23.3667

 eigenvalue-minimisations  : 26028
 total energy-change (2. order) : 0.1896446E-04  (-0.1278518E-04)
 number of electron     594.0000010 magnetization 
 augmentation part      182.0760274 magnetization 

 Broyden mixing:
  rms(total) = 0.25965E-02    rms(broyden)= 0.25965E-02
  rms(prec ) = 0.38100E-02
  weight for this iteration     100.00

 eigenvalues of (default mixing * dielectric matrix)
  average eigenvalue GAMMA=   1.0144
  2.7339  2.3818  1.7454  1.1147  1.1147  0.6647  0.5542  0.4664  0.3721  0.3721
  0.3213  0.3313

 Free energy of the ion-electron system (eV)
  ---------------------------------------------------
  alpha Z        PSCENC =      7142.24044989
  Ewald energy   TEWEN  =    -52429.04065269
  -Hartree energ DENC   =     -5878.29234182
  -exchange      EXHF   =         0.00000000
  -V(xc)+E(xc)   XCENC  =      1245.42956799
  PAW double counting   =     93979.45798211   -93246.85015258
  entropy T*S    EENTRO =         0.00026764
  eigenvalues    EBANDS =     -7994.72454746
  atomic energy  EATOM  =     56548.62480702
  Solvation  Ediel_sol  =         0.00000000
  ---------------------------------------------------
[...]
  0.007 -31.287   0.001  -0.007   7.396  -0.001  -0.001   0.000
  0.002   0.001 -31.286  -0.001  -0.001   7.394   0.000  -0.001
  7.401  -0.007  -0.001   6.386   0.004   0.001   0.002  -0.001
 -0.007   7.396  -0.001   0.004   6.388   0.000   0.001   0.001
 -0.001  -0.001   7.394   0.001   0.000   6.389   0.001   0.001
 -0.002  -0.001   0.000   0.002   0.001   0.001  -6.589   0.000
  0.000   0.000  -0.001  -0.001   0.001   0.001   0.000  -6.590
 -0.001  -0.001   0.001   0.000  -0.000  -0.001  -0.000   0.000
 -0.001  -0.002  -0.001   0.001   0.002  -0.001   0.001   0.000
 -0.002  -0.001  -0.001   0.001   0.000   0.001   0.000  -0.001
 -0.003  -0.002   0.000   0.003   0.001   0.001  -8.020   0.000
  0.000   0.000  -0.002  -0.002   0.001   0.001   0.000  -8.020
 -0.001  -0.002   0.001   0.001  -0.000  -0.001  -0.000   0.000
 -0.002  -0.003  -0.001   0.001   0.003  -0.001   0.001   0.000
 -0.002  -0.001  -0.001   0.001   0.000   0.001   0.000  -0.001
  0.001  -0.002   0.002  -0.001   0.001  -0.000  -0.000  -0.003
  0.003  -0.004   0.004  -0.001   0.001  -0.000  -0.001  -0.005
 total augmentation occupancy for first ion, spin component:           1
  1.996   0.000   0.000  -0.010   0.002   0.000   0.004  -0.008  -0.000   0.004  -0.001  -0.002   0.007   0.001  -0.003   0.001
  0.000   1.996   0.000   0.002  -0.011   0.000   0.005   0.006  -0.004   0.002   0.002  -0.003  -0.004   0.004  -0.001  -0.002
  0.000   0.000   1.996   0.000   0.000  -0.010   0.005   0.005   0.000  -0.004  -0.003  -0.004  -0.003  -0.000   0.003   0.002
 -0.010   0.002   0.000   0.153  -0.006   0.001   0.016  -0.035  -0.018   0.005  -0.025  -0.008   0.019   0.009  -0.001   0.014
  0.002  -0.011   0.000  -0.006   0.165  -0.001   0.004   0.003  -0.029  -0.001   0.013  -0.000  -0.002   0.018   0.001  -0.007
  0.000   0.000  -0.010   0.001  -0.001   0.158   0.005   0.004  -0.006   0.002  -0.001  -0.002  -0.000   0.003  -0.000   0.001
  0.004   0.005   0.005   0.016   0.004   0.005   6.308   0.020  -0.061   0.292   0.002  -3.327  -0.010   0.039  -0.140   0.002
 -0.008   0.006   0.005  -0.035   0.003   0.004   0.020   6.011   0.025   0.056  -0.143  -0.010  -3.200  -0.019  -0.030   0.090
 -0.000  -0.004   0.000  -0.018  -0.029  -0.006  -0.061   0.025   5.779   0.015  -0.050   0.039  -0.019  -3.229  -0.013   0.030
  0.004   0.002  -0.004   0.005  -0.001   0.002   0.292   0.056   0.015   6.086   0.041  -0.140  -0.030  -0.013  -3.235  -0.023
 -0.001   0.002  -0.003  -0.025   0.013  -0.001   0.002  -0.143  -0.050   0.041   5.460   0.002   0.089   0.030  -0.023  -3.062
 -0.002  -0.003  -0.004  -0.008  -0.000  -0.002  -3.327  -0.010   0.039  -0.140   0.002   1.794   0.006  -0.024   0.072  -0.003
  0.007  -0.004  -0.003   0.019  -0.002  -0.000  -0.010  -3.200  -0.019  -0.030   0.089   0.006   1.739   0.013   0.017  -0.054
  0.001   0.004  -0.000   0.009   0.018   0.003   0.039  -0.019  -3.229  -0.013   0.030  -0.024   0.013   1.820   0.009  -0.018
 -0.003  -0.001   0.003  -0.001   0.001  -0.000  -0.140  -0.030  -0.013  -3.235  -0.023   0.072   0.017   0.009   1.756   0.013
  0.001  -0.002   0.002   0.014  -0.007   0.001   0.002   0.090   0.030  -0.023  -3.062  -0.003  -0.054  -0.018   0.013   1.731
  0.002  -0.000  -0.010   0.010  -0.013   0.002   0.050   0.132   0.092   0.023   0.035  -0.029  -0.068  -0.054  -0.013  -0.022
 -0.001   0.000   0.006  -0.001   0.001  -0.000  -0.007  -0.015  -0.016  -0.002  -0.013   0.004   0.009   0.009   0.002   0.007


------------------------ aborting loop because EDIFF is reached ----------------------------------------


    CHARGE:  cpu time      0.5602: real time      0.5615
    FORLOC:  cpu time      0.0066: real time      0.0071
    FORNL :  cpu time      4.7763: real time      4.7893
    STRESS:  cpu time     14.3092: real time     14.3645
    FORCOR:  cpu time      0.0275: real time      0.0294
    FORHAR:  cpu time      0.0108: real time      0.0125
    MIXING:  cpu time      0.0012: real time      0.0012
    OFIELD:  cpu time      0.0006: real time      0.0013

  FORCE on cell =-STRESS in cart. coord.  units (eV):
  Direction    XX          YY          ZZ          XY          YZ          ZX
  --------------------------------------------------------------------------------------
  Alpha Z  7142.24045  7142.24045  7142.24045
  Ewald  -17498.06746-17582.46006-17348.76972  -123.61322   430.08239   -39.64200
  Hartree  1953.80469  1905.50339  2019.12814   -45.43159   148.95069   -16.50287
  E(xc)   -2551.49561 -2551.45256 -2551.36982     0.18867    -0.80688     0.07350
  Local    5447.66038  5591.93849  5232.78803   164.30398  -558.78723    55.41771
  n-local -2688.26791 -2698.96522 -2671.31852     1.93734   -10.13369     1.33728
  augment  1161.15767  1159.73950  1159.92876     0.02875    -0.17424    -0.17476
  Kinetic  7110.33867  7086.40057  7114.02245    -2.02841    10.23049    -1.24941
  Fock        0.00000     0.00000     0.00000     0.00000     0.00000     0.00000
  -------------------------------------------------------------------------------------
  Total      77.37087    52.94455    96.64977    -4.61448    19.36154    -0.74054
  in kB     132.44034    90.62835   165.44118    -7.89889    33.14230    -1.26763
  external pressure =      129.50 kB  Pullay stress =        0.00 kB


 VOLUME and BASIS-vectors are now :
 -----------------------------------------------------------------------------
  energy-cutoff  :      520.00
  volume of cell :      935.98
      direct lattice vectors                 reciprocal lattice vectors
     9.783807597 -0.000000000 -0.000000000     0.102209696 -0.001076587 -0.000291496
     0.106438835 10.105159872 -0.000000000     0.000000000  0.098959345  0.004183658
     0.022783872 -0.400235855  9.467093777     0.000000000  0.000000000  0.105629037

  length of vectors
     9.783807597 10.105720423  9.475577683     0.102215781  0.099047741  0.105629037


 FORCES acting on ions
    electron-ion (+dipol)            ewald-force                    non-local-force                 convergence-correction
 -----------------------------------------------------------------------------------------------
   -.431E+01 0.748E+01 -.184E+02   0.394E+01 -.749E+01 0.186E+02   0.549E-01 -.258E+00 0.642E-01   0.156E-01 -.250E-02 0.270E-02
   0.162E+02 -.195E+02 -.168E+02   -.165E+02 0.199E+02 0.170E+02   -.149E+00 -.122E+00 -.525E-01   0.131E-01 -.243E-02 -.527E-02
   0.691E+01 0.435E+02 0.351E+02   -.762E+01 -.443E+02 -.359E+02   -.920E-01 0.646E-01 0.667E-01   0.158E-01 0.120E-02 0.222E-02
   0.131E+02 -.572E+01 -.101E+01   -.135E+02 0.603E+01 0.132E+01   0.285E-01 -.811E-02 -.228E+00   0.151E-01 -.726E-02 0.267E-02
   0.287E+02 0.458E+02 -.426E+01   -.298E+02 -.465E+02 0.440E+01   -.318E-02 0.601E-01 0.168E+00   0.154E-01 -.248E-02 -.846E-03
   0.290E+02 -.373E+02 -.105E+02   -.296E+02 0.384E+02 0.112E+02   -.426E-01 -.269E+00 -.134E+00   0.124E-01 -.546E-02 -.323E-02
   0.981E+01 -.149E+02 0.163E+02   -.101E+02 0.153E+02 -.163E+02   -.195E-01 0.125E+00 -.115E+00   0.175E-01 0.761E-02 0.579E-02
   -.253E+02 -.293E+02 0.789E+00   0.256E+02 0.299E+02 -.492E+00   0.196E+00 0.126E+00 -.115E+00   0.170E-01 0.352E-02 -.354E-02
   -.124E+02 -.253E+02 -.326E+02   0.128E+02 0.263E+02 0.337E+02   -.246E+00 -.290E+00 -.178E+00   0.193E-01 0.168E-02 -.248E-02
   0.373E+02 -.268E+02 0.121E+02   -.379E+02 0.269E+02 -.119E+02   -.691E-01 -.661E-01 -.969E-01   -.837E-02 0.988E-03 0.627E-02
   0.740E+01 -.461E+02 -.290E+02   -.683E+01 0.471E+02 0.299E+02   0.121E+00 -.355E+00 -.104E-01   -.523E-02 -.881E-03 -.767E-02
   0.487E+02 0.111E+02 0.411E+01   -.497E+02 -.111E+02 -.403E+01   0.170E-01 0.778E-02 -.127E+00   -.960E-02 0.480E-02 0.220E-02
   -.793E+01 0.232E+02 -.997E+01   0.812E+01 -.238E+02 0.101E+02   -.754E-01 -.115E+00 0.660E-01   -.154E-02 -.196E-02 0.505E-02
   0.204E+02 0.259E+02 0.102E+02   -.210E+02 -.264E+02 -.104E+02   -.148E+00 0.280E+00 0.184E-01   0.768E-03 0.178E-02 -.168E-02
   -.391E+01 -.136E+02 -.232E+01   0.417E+01 0.142E+02 0.250E+01   -.184E+00 -.121E+00 -.128E+00   -.712E-03 -.160E-02 -.364E-02
   -.357E+01 0.251E+02 0.408E+02   0.383E+01 -.263E+02 -.419E+02   0.310E-02 0.509E+00 0.133E+00   -.803E-02 0.282E-02 0.108E-01
   0.141E+02 0.195E+02 -.181E+02   -.144E+02 -.197E+02 0.180E+02   -.851E-01 0.595E-02 0.253E+00   -.538E-02 -.161E-02 -.591E-02
   0.134E+02 -.188E+02 -.307E+01   -.135E+02 0.194E+02 0.286E+01   0.190E+00 0.990E-01 -.156E+00   -.103E-01 -.333E-02 -.358E-02
   -.175E+02 -.111E+02 0.192E+02   0.174E+02 0.115E+02 -.200E+02   0.288E+00 0.319E-01 -.110E+00   -.803E-02 0.349E-02 0.107E-01
   -.236E+02 -.148E+02 -.233E+02   0.238E+02 0.147E+02 0.235E+02   -.486E-01 0.855E-01 0.152E+00   -.753E-02 0.398E-02 -.744E-02
   -.315E+02 -.141E+02 0.177E+02   0.315E+02 0.142E+02 -.183E+02   0.267E+00 0.385E+00 0.707E-01   -.626E-02 0.849E-02 -.875E-03
   0.595E+01 -.553E+01 0.409E+02   -.624E+01 0.577E+01 -.414E+02   -.660E-01 -.333E-01 -.240E+00   -.125E-01 -.610E-02 0.525E-02
   -.246E+02 0.244E+02 -.191E+02   0.246E+02 -.248E+02 0.194E+02   0.108E+00 -.167E+00 0.188E+00   -.147E-01 -.378E-02 -.741E-03
   -.204E+02 -.131E+02 -.250E+02   0.207E+02 0.135E+02 0.256E+02   0.110E+00 -.359E+00 0.240E+00   -.111E-01 -.561E-02 -.579E-02
   -.127E+01 -.346E+01 0.312E+02   0.972E+00 0.403E+01 -.318E+02   0.157E+00 0.215E+00 -.202E+00   -.103E-01 0.120E-02 0.110E-01
   0.192E+02 -.380E+01 0.374E+02   -.202E+02 0.360E+01 -.387E+02   0.466E-01 0.445E+00 0.652E-01   -.116E-01 -.129E-02 -.576E-02
   -.633E+01 0.225E+02 -.447E+02   0.645E+01 -.226E+02 0.449E+02   -.114E-01 -.257E+00 0.347E+00   -.897E-02 -.407E-02 -.519E-02
   0.383E+01 -.329E+02 -.184E+02   -.363E+01 0.335E+02 0.189E+02   -.131E+00 0.968E-01 -.459E-01   0.112E-01 -.637E-02 -.151E-02
   -.565E+01 0.151E+01 0.419E+02   0.620E+01 -.196E+01 -.427E+02   0.180E-01 0.322E+00 -.116E+00   0.812E-02 -.949E-03 -.150E-02
   -.234E+02 -.715E+01 -.260E+02   0.243E+02 0.746E+01 0.267E+02   0.410E-01 -.316E+00 -.672E-02   0.897E-02 -.491E-02 0.335E-02
   -.125E+02 0.260E+02 0.664E+01   0.134E+02 -.266E+02 -.679E+01   -.507E-01 0.141E+00 0.374E-01   0.139E-01 0.345E-02 0.346E-02
   -.840E+01 0.426E+00 -.146E+02   0.890E+01 -.305E+00 0.151E+02   -.116E+00 -.120E+00 -.105E+00   0.125E-01 -.201E-03 -.618E-02
   0.191E+02 -.344E+00 0.672E+01   -.193E+02 0.432E+00 -.675E+01   -.195E+00 -.959E-01 0.355E-01   0.128E-01 0.876E-03 0.256E-02
   0.597E+02 0.870E+01 0.128E+02   -.611E+02 -.902E+01 -.136E+02   0.886E-01 -.117E+00 0.169E+00   0.111E-01 0.228E-02 -.119E-02
   0.410E+02 0.570E+01 -.290E+02   -.415E+02 -.563E+01 0.292E+02   -.252E+00 -.461E+00 -.127E-01   0.822E-02 0.110E-02 -.560E-02
   0.346E+01 0.337E+01 0.276E+02   -.353E+01 -.336E+01 -.283E+02   0.351E+00 0.230E+00 -.713E-01   0.648E-02 0.376E-02 0.644E-02
   0.381E+02 -.353E+02 0.167E+01   -.386E+02 0.355E+02 -.202E+01   -.247E+00 0.118E+00 -.935E-01   -.143E-01 0.416E-03 0.250E-02
   0.119E+02 -.262E+02 0.271E+02   -.120E+02 0.261E+02 -.278E+02   -.276E-01 0.467E+00 -.563E-01   -.123E-01 0.580E-02 -.553E-02
   0.571E+01 -.565E+02 -.219E+02   -.550E+01 0.572E+02 0.220E+02   -.368E+00 -.167E+00 0.922E-01   -.170E-01 0.254E-02 0.354E-02
   0.646E+01 0.171E+02 0.185E+02   -.595E+01 -.174E+02 -.186E+02   -.205E+00 0.100E+00 0.556E-01   -.172E-01 0.861E-03 0.565E-02
   0.103E+02 0.172E+02 -.112E+02   -.102E+02 -.174E+02 0.115E+02   0.903E-02 -.988E-01 -.341E-01   -.166E-01 -.540E-02 -.863E-02
   -.106E+02 0.132E+02 -.162E+02   0.108E+02 -.133E+02 0.167E+02   -.638E-01 -.144E+00 0.841E-01   -.167E-01 -.409E-02 0.201E-02
   -.169E+02 0.253E+02 -.154E+02   0.172E+02 -.256E+02 0.163E+02   0.208E+00 -.125E+00 0.910E-01   -.170E-01 0.117E-02 0.939E-03
   0.170E+02 0.177E+02 -.478E+01   -.170E+02 -.181E+02 0.503E+01   0.100E+00 -.150E+00 0.155E+00   -.174E-01 0.200E-02 -.113E-01
   0.272E+02 0.504E+02 0.260E+01   -.279E+02 -.512E+02 -.221E+01   -.616E-01 0.164E+00 -.101E+00   -.186E-01 0.434E-02 0.107E-01
   -.549E+02 -.307E+02 -.321E+02   0.558E+02 0.310E+02 0.327E+02   0.296E+00 0.809E-01 -.110E+00   0.111E-02 -.485E-02 0.248E-02
   -.204E+02 -.117E+02 0.400E+02   0.206E+02 0.113E+02 -.406E+02   0.138E+00 0.433E+00 -.187E+00   0.338E-02 0.220E-02 -.335E-02
   0.268E+01 -.469E+02 -.926E+01   -.263E+01 0.475E+02 0.962E+01   0.200E+00 -.588E-02 0.434E-01   0.671E-02 -.171E-02 0.109E-02
   -.239E+02 0.242E+02 0.355E+01   0.247E+02 -.247E+02 -.379E+01   -.561E-01 0.742E-01 0.184E+00   0.455E-03 0.203E-02 0.248E-02
   -.164E+02 0.602E+02 -.850E+01   0.165E+02 -.614E+02 0.785E+01   0.263E-01 0.101E+00 0.690E-01   0.314E-02 -.317E-02 -.457E-02
   -.180E+02 0.148E+02 0.240E+02   0.183E+02 -.152E+02 -.248E+02   0.199E+00 -.151E-01 0.344E-01   0.264E-02 -.265E-02 0.173E-02
   -.352E+02 0.190E+02 -.341E+01   0.355E+02 -.195E+02 0.371E+01   -.146E+00 -.222E+00 0.230E+00   0.657E-02 0.495E-02 0.131E-02
   -.636E+02 -.457E+02 -.173E+02   0.648E+02 0.468E+02 0.182E+02   -.795E-01 -.239E+00 -.297E+00   0.757E-02 0.182E-02 -.987E-02
   -.244E+02 0.431E+02 0.741E+01   0.244E+02 -.438E+02 -.734E+01   0.440E-01 -.850E-01 0.821E-02   0.136E-01 0.566E-02 0.814E-02
 -----------------------------------------------------------------------------------------------
   -.643E-01 0.251E-01 0.121E-01   -.355E-14 0.426E-13 -.146E-12   0.663E-01 -.146E-01 -.888E-02   -.682E-02 0.214E-02 0.100E-03
 
 
 POSITION                                       TOTAL-FORCE (eV/Angst)
 -----------------------------------------------------------------------------------
      0.05926     -0.34551      9.42538        -0.291746     -0.275777      0.246535
      0.13367      9.95153      3.14240        -0.353888      0.192774      0.130640
      0.07857     -0.25751      6.32523        -0.784536     -0.711660     -0.663990
      9.83593      2.93750      9.43858        -0.406157      0.299007      0.079711
      0.08784      3.28176      3.08560        -1.003923     -0.632056      0.307567
      9.82981      3.04904      6.25753        -0.568919      0.797231      0.493006
      0.09764      6.27956      9.46323        -0.335493      0.592455     -0.070941
      9.79250      6.58879      3.13839         0.497559      0.645735      0.179186
      9.85869      6.40106      6.24245         0.207546      0.738929      0.967207
      3.36140     -0.37422      9.41779        -0.675598      0.019693      0.090693
      3.22946     -0.12027      3.08660         0.684361      0.636109      0.837422
      3.45868      9.83383      6.35513        -0.954720      0.016791     -0.045253
      3.29833      3.05074      9.42660         0.110777     -0.777394      0.158038
      3.33803      3.25630      3.15761        -0.719701     -0.232750     -0.168787
      3.30123      3.05366      6.28049         0.078732      0.439108      0.046903
      3.29655      6.78471      0.06694         0.253454     -0.631138     -1.009798
      3.34674      6.63650      3.13069        -0.311553     -0.147702      0.157884
      3.31366      6.42304      6.34639         0.115241      0.752550     -0.367722
      6.61221     10.08220      0.05615         0.231953      0.382838     -0.876475
      6.62945      9.95267      3.12914         0.226794      0.035824      0.355226
      6.63208      9.76469      6.34218         0.252274      0.480706     -0.522677
      6.55262      3.35954      0.06709        -0.360851      0.197581     -0.722363
      6.55017      3.31446      3.15545         0.054860     -0.495533      0.450373
      6.51564      3.10788      6.24503         0.349429      0.041823      0.780628
      6.58838      6.69023      0.08688        -0.152064      0.785739     -0.868187
      6.63174      6.59418      3.23850        -0.938189      0.245252     -1.255014
      6.56808      6.52689      6.26470         0.101126     -0.373713      0.547455
      1.66999      1.59114      1.50502         0.080591      0.671838      0.475191
      1.61767      1.48069      4.75904         0.576811     -0.129012     -0.889354
      1.62361      1.36691      7.81560         0.920456     -0.008481      0.719639
      1.61719      5.03806      1.57707         0.865235     -0.443304     -0.114884
      1.65998      4.83817      4.66845         0.399399      0.000478      0.358721
      1.70628      4.70206      7.86713        -0.387530     -0.007259      0.013691
      1.79867      8.41056      1.60363        -1.229856     -0.429631     -0.611347
      1.81327      8.22868      4.71548        -0.708074     -0.389028      0.129474
      1.70599      8.04094      7.94276         0.291133      0.241580     -0.780892
      4.96782      1.62312      1.62399        -0.755264      0.315671     -0.439251
      4.94798      1.41770      4.77913        -0.199420      0.345839     -0.779137
      4.97028      1.32002      7.87855        -0.171962      0.600876      0.254263
      4.90392      5.02009      1.59641         0.289654     -0.153928     -0.070907
      4.90613      4.90316      4.72730         0.094113     -0.318331      0.226361
      4.94403      4.75789      7.84505         0.099120     -0.262128      0.621968
      4.95624      8.39909      1.51840         0.485152     -0.376157      0.965185
      4.95354      8.29422      4.68162         0.088577     -0.565692      0.394772
      5.08167      8.11583      7.89146        -0.758818     -0.687515      0.299762
      8.08666      1.57606      1.55707         1.176154      0.442951      0.490417
      8.14176      1.45702      4.78779         0.376097      0.110412     -0.791514
      8.15672      1.28068      7.83948         0.249841      0.594131      0.405706
      8.15269      5.00827      1.56711         0.773322     -0.434865     -0.057235
      8.19534      4.91660      4.78372         0.164033     -1.135286     -0.584612
      8.13417      4.72656      7.92795         0.530368     -0.425142     -0.671428
      8.24689      8.41803      1.52196         0.205268     -0.687233      0.532595
      8.18035      8.16676      4.69577         1.128222      0.910668      0.559941
      8.29337      8.13418      7.89531         0.110610     -0.803873      0.085607
 -----------------------------------------------------------------------------------
    total drift:                               -0.004910      0.012559      0.003354


--------------------------------------------------------------------------------------------------------



  FREE ENERGIE OF THE ION-ELECTRON SYSTEM (eV)
  ---------------------------------------------------
  free  energy   TOTEN  =      -633.15460525 eV

  energy  without entropy=     -633.15487144  energy(sigma->0) =     -633.15469398
 


--------------------------------------------------------------------------------------------------------


    POTLOK:  cpu time      0.1476: real time      0.1488


--------------------------------------------------------------------------------------------------------


     LOOP+:  cpu time    499.6540: real time    501.8252
    4ORBIT:  cpu time      0.0000: real time      0.0000

 total amount of memory used by VASP MPI-rank0   104686. kBytes
=======================================================================

   base      :      30000. kBytes
   nonlr-proj:      11777. kBytes
   fftplans  :       2319. kBytes
   grid      :       3297. kBytes
   one-center:         62. kBytes
   wavefun   :      57231. kBytes
 
  
  
 General timing and accounting informations for this job:
 ========================================================
  
                  Total CPU time used (sec):      519.733
                            User time (sec):      518.367
                          System time (sec):        1.365
                         Elapsed time (sec):      522.457
  
                   Maximum memory used (kb):      344148.
                   Average memory used (kb):          N/A
  
                          Minor page faults:        97359
                          Major page faults:           14
                 Voluntary context switches:        10382
