<?xml version="1.0" encoding="ISO-8859-1"?>
<modeling>
 <generator>
  <i name="program" type="string">vasp </i>
  <i name="version" type="string">6.3.0  </i>
  <i name="subversion" type="string">20Jan22 (build Mar 25 2022 12:20:17) complex                          parallel </i>
  <i name="platform" type="string">LinuxIFC </i>
  <i name="date" type="string">2023 07 24 </i>
  <i name="time" type="string">23:19:01 </i>
 </generator>
 <incar>
  <i type="string" name="PREC">Accurate</i>
  <i type="string" name="ALGO">normal</i>
  <i type="int" name="NELM">   400</i>
  <i name="EDIFF">      0.00001000</i>
  <i type="int" name="NSW">     0</i>
  <i type="int" name="ISIF">     2</i>
  <i name="ENCUT">    520.00000000</i>
  <i type="string" name="LREAL">Auto</i>
  <i type="int" name="ISMEAR">     1</i>
  <i name="SIGMA">      0.10000000</i>
  <i name="KSPACING">      0.20000000</i>
  <i type="logical" name="LWAVE"> F  </i>
  <i type="logical" name="LCHARG"> F  </i>
  <i type="logical" name="LASPH"> T  </i>
 </incar>
 <primitive_cell>
  <structure name="primitive_cell" >
   <crystal>
    <varray name="basis" >
     <v>       9.78380760      -0.00000000      -0.00000000 </v>
     <v>       0.10643884      10.10515987      -0.00000000 </v>
     <v>       0.02278387      -0.40023586       9.46709378 </v>
    </varray>
    <i name="volume">    935.98259171 </i>
    <varray name="rec_basis" >
     <v>       0.10220970      -0.00107659      -0.00029150 </v>
     <v>       0.00000000       0.09895934       0.00418366 </v>
     <v>       0.00000000       0.00000000       0.10562904 </v>
    </varray>
   </crystal>
   <varray name="positions" >
    <v>       0.00368162       0.00524083       0.99559341 </v>
    <v>       0.00203294       0.99794354       0.33192893 </v>
    <v>       0.00646396       0.00097994       0.66812822 </v>
    <v>       0.99941350       0.33018067       0.99698813 </v>
    <v>       0.00454593       0.33767037       0.32592864 </v>
    <v>       0.99959559       0.32790996       0.66097656 </v>
    <v>       0.00046081       0.66101186       0.99959213 </v>
    <v>       0.99288050       0.66515247       0.33150493 </v>
    <v>       0.99894302       0.65956076       0.65938421 </v>
    <v>       0.34122558       0.00236868       0.99479160 </v>
    <v>       0.32931153       0.00101150       0.32603497 </v>
    <v>       0.34107143       0.99973731       0.67128678 </v>
    <v>       0.33108939       0.34133695       0.99572257 </v>
    <v>       0.33675240       0.33545201       0.33353512 </v>
    <v>       0.33229960       0.32846402       0.66340188 </v>
    <v>       0.32961573       0.67169096       0.00707105 </v>
    <v>       0.33401187       0.66984171       0.33069159 </v>
    <v>       0.32992321       0.66217137       0.67036307 </v>
    <v>       0.66496172       0.99796292       0.00593146 </v>
    <v>       0.66596713       0.99800117       0.33052767 </v>
    <v>       0.66550165       0.99284047       0.66991846 </v>
    <v>       0.66610464       0.33273830       0.00708637 </v>
    <v>       0.66500257       0.34119861       0.33330765 </v>
    <v>       0.66079565       0.33368037       0.65965650 </v>
    <v>       0.66616888       0.66242427       0.00917664 </v>
    <v>       0.66978511       0.66610447       0.34207958 </v>
    <v>       0.66246859       0.67210571       0.66173459 </v>
    <v>       0.16853700       0.16375452       0.15897348 </v>
    <v>       0.16236067       0.16643803       0.50269321 </v>
    <v>       0.16219877       0.16796584       0.82555412 </v>
    <v>       0.15940897       0.50516103       0.16658406 </v>
    <v>       0.16309649       0.49831377       0.49312378 </v>
    <v>       0.16704337       0.49822602       0.83099705 </v>
    <v>       0.17431954       0.83901208       0.16938984 </v>
    <v>       0.17510037       0.83403245       0.49809164 </v>
    <v>       0.16339631       0.82895550       0.83898611 </v>
    <v>       0.50553864       0.16741718       0.17154054 </v>
    <v>       0.50281186       0.16028934       0.50481463 </v>
    <v>       0.50429264       0.16358965       0.83220371 </v>
    <v>       0.49535858       0.50346402       0.16862702 </v>
    <v>       0.49479701       0.50499104       0.49934036 </v>
    <v>       0.49791901       0.50365857       0.82866492 </v>
    <v>       0.49709044       0.83752087       0.16038734 </v>
    <v>       0.49600595       0.84037642       0.49451501 </v>
    <v>       0.50835862       0.83615231       0.83356693 </v>
    <v>       0.82438433       0.16247975       0.16447195 </v>
    <v>       0.82920252       0.16421630       0.50572919 </v>
    <v>       0.83003218       0.15953324       0.82807710 </v>
    <v>       0.82743538       0.50217158       0.16553250 </v>
    <v>       0.83095514       0.50655741       0.50529982 </v>
    <v>       0.82399177       0.50090513       0.83742195 </v>
    <v>       0.83340542       0.83941056       0.16076367 </v>
    <v>       0.82595049       0.82782293       0.49600947 </v>
    <v>       0.83660397       0.83798421       0.83397447 </v>
   </varray>
  </structure>
  <varray name="primitive_index" >
   <v type="int" >        1 </v>
   <v type="int" >        2 </v>
   <v type="int" >        3 </v>
   <v type="int" >        4 </v>
   <v type="int" >        5 </v>
   <v type="int" >        6 </v>
   <v type="int" >        7 </v>
   <v type="int" >        8 </v>
   <v type="int" >        9 </v>
   <v type="int" >       10 </v>
   <v type="int" >       11 </v>
   <v type="int" >       12 </v>
   <v type="int" >       13 </v>
   <v type="int" >       14 </v>
   <v type="int" >       15 </v>
   <v type="int" >       16 </v>
   <v type="int" >       17 </v>
   <v type="int" >       18 </v>
   <v type="int" >       19 </v>
   <v type="int" >       20 </v>
   <v type="int" >       21 </v>
   <v type="int" >       22 </v>
   <v type="int" >       23 </v>
   <v type="int" >       24 </v>
   <v type="int" >       25 </v>
   <v type="int" >       26 </v>
   <v type="int" >       27 </v>
   <v type="int" >       28 </v>
   <v type="int" >       29 </v>
   <v type="int" >       30 </v>
   <v type="int" >       31 </v>
   <v type="int" >       32 </v>
   <v type="int" >       33 </v>
   <v type="int" >       34 </v>
   <v type="int" >       35 </v>
   <v type="int" >       36 </v>
   <v type="int" >       37 </v>
   <v type="int" >       38 </v>
   <v type="int" >       39 </v>
   <v type="int" >       40 </v>
   <v type="int" >       41 </v>
   <v type="int" >       42 </v>
   <v type="int" >       43 </v>
   <v type="int" >       44 </v>
   <v type="int" >       45 </v>
   <v type="int" >       46 </v>
   <v type="int" >       47 </v>
   <v type="int" >       48 </v>
   <v type="int" >       49 </v>
   <v type="int" >       50 </v>
   <v type="int" >       51 </v>
   <v type="int" >       52 </v>
   <v type="int" >       53 </v>
   <v type="int" >       54 </v>
  </varray>
 </primitive_cell>
 <kpoints>
  <generation param="Gamma">
   <v type="int" name="divisions">       4        4        4 </v>
   <v name="usershift">      0.00000000       0.00000000       0.00000000 </v>
   <v name="genvec1">      0.25000000       0.00000000       0.00000000 </v>
   <v name="genvec2">      0.00000000       0.25000000       0.00000000 </v>
   <v name="genvec3">     -0.00000000      -0.00000000       0.25000000 </v>
   <v name="shift">      0.00000000       0.00000000       0.00000000 </v>
  </generation>
  <varray name="kpointlist" >
   <v>       0.00000000       0.00000000       0.00000000 </v>
   <v>       0.25000000       0.00000000      -0.00000000 </v>
   <v>       0.50000000       0.00000000      -0.00000000 </v>
   <v>      -0.00000000       0.25000000      -0.00000000 </v>
   <v>       0.25000000       0.25000000       0.00000000 </v>
   <v>       0.50000000       0.25000000       0.00000000 </v>
   <v>      -0.25000000       0.25000000       0.00000000 </v>
   <v>       0.00000000       0.50000000       0.00000000 </v>
   <v>       0.25000000       0.50000000      -0.00000000 </v>
   <v>       0.50000000       0.50000000      -0.00000000 </v>
   <v>      -0.00000000      -0.00000000       0.25000000 </v>
   <v>       0.25000000      -0.00000000       0.25000000 </v>
   <v>       0.50000000       0.00000000       0.25000000 </v>
   <v>      -0.25000000      -0.00000000       0.25000000 </v>
   <v>       0.00000000       0.25000000       0.25000000 </v>
   <v>       0.25000000       0.25000000       0.25000000 </v>
   <v>       0.50000000       0.25000000       0.25000000 </v>
   <v>      -0.25000000       0.25000000       0.25000000 </v>
   <v>       0.00000000       0.50000000       0.25000000 </v>
   <v>       0.25000000       0.50000000       0.25000000 </v>
   <v>       0.50000000       0.50000000       0.25000000 </v>
   <v>      -0.25000000       0.50000000       0.25000000 </v>
   <v>      -0.00000000      -0.25000000       0.25000000 </v>
   <v>       0.25000000      -0.25000000       0.25000000 </v>
   <v>       0.50000000      -0.25000000       0.25000000 </v>
   <v>      -0.25000000      -0.25000000       0.25000000 </v>
   <v>      -0.00000000      -0.00000000       0.50000000 </v>
   <v>       0.25000000      -0.00000000       0.50000000 </v>
   <v>       0.50000000      -0.00000000       0.50000000 </v>
   <v>       0.00000000       0.25000000       0.50000000 </v>
   <v>       0.25000000       0.25000000       0.50000000 </v>
   <v>       0.50000000       0.25000000       0.50000000 </v>
   <v>      -0.25000000       0.25000000       0.50000000 </v>
   <v>       0.00000000       0.50000000       0.50000000 </v>
   <v>       0.25000000       0.50000000       0.50000000 </v>
   <v>       0.50000000       0.50000000       0.50000000 </v>
  </varray>
  <varray name="weights" >
   <v>       0.01562500 </v>
   <v>       0.03125000 </v>
   <v>       0.01562500 </v>
   <v>       0.03125000 </v>
   <v>       0.03125000 </v>
   <v>       0.03125000 </v>
   <v>       0.03125000 </v>
   <v>       0.01562500 </v>
   <v>       0.03125000 </v>
   <v>       0.01562500 </v>
   <v>       0.03125000 </v>
   <v>       0.03125000 </v>
   <v>       0.03125000 </v>
   <v>       0.03125000 </v>
   <v>       0.03125000 </v>
   <v>       0.03125000 </v>
   <v>       0.03125000 </v>
   <v>       0.03125000 </v>
   <v>       0.03125000 </v>
   <v>       0.03125000 </v>
   <v>       0.03125000 </v>
   <v>       0.03125000 </v>
   <v>       0.03125000 </v>
   <v>       0.03125000 </v>
   <v>       0.03125000 </v>
   <v>       0.03125000 </v>
   <v>       0.01562500 </v>
   <v>       0.03125000 </v>
   <v>       0.01562500 </v>
   <v>       0.03125000 </v>
   <v>       0.03125000 </v>
   <v>       0.03125000 </v>
   <v>       0.03125000 </v>
   <v>       0.01562500 </v>
   <v>       0.03125000 </v>
   <v>       0.01562500 </v>
  </varray>
 </kpoints>
 <parameters>
  <separator name="general" >
   <i type="string" name="SYSTEM">unknown system</i>
   <i type="logical" name="LCOMPAT"> F  </i>
  </separator>
  <separator name="electronic" >
   <i type="string" name="PREC">accura</i>
   <i name="ENMAX">    520.00000000</i>
   <i name="ENAUG">    377.42100000</i>
   <i name="EDIFF">      0.00001000</i>
   <i type="int" name="IALGO">    38</i>
   <i type="int" name="IWAVPR">    10</i>
   <i type="int" name="NBANDS">   360</i>
   <i type="int" name="NBANDSLOW">    -1</i>
   <i type="int" name="NBANDSHIGH">    -1</i>
   <i name="NELECT">    594.00000000</i>
   <i type="int" name="TURBO">     0</i>
   <i type="int" name="IRESTART">     0</i>
   <i type="int" name="NREBOOT">     0</i>
   <i type="int" name="NMIN">     0</i>
   <i name="EREF">      0.00000000</i>
   <separator name="electronic smearing" >
    <i type="int" name="ISMEAR">     1</i>
    <i name="SIGMA">      0.10000000</i>
    <i name="KSPACING">      0.20000000</i>
    <i type="logical" name="KGAMMA"> T  </i>
    <i type="logical" name="KBLOWUP"> T  </i>
   </separator>
   <separator name="electronic projectors" >
    <i type="logical" name="LREAL"> T  </i>
    <v name="ROPT">     -0.00025000</v>
    <i type="int" name="LMAXPAW">  -100</i>
    <i type="int" name="LMAXMIX">     2</i>
    <i type="logical" name="NLSPLINE"> F  </i>
   </separator>
   <separator name="electronic startup" >
    <i type="int" name="ISTART">     0</i>
    <i type="int" name="ICHARG">     2</i>
    <i type="int" name="INIWAV">     1</i>
   </separator>
   <separator name="electronic spin" >
    <i type="int" name="ISPIN">     1</i>
    <i type="logical" name="LNONCOLLINEAR"> F  </i>
    <v name="MAGMOM">      1.00000000      1.00000000      1.00000000      1.00000000      1.00000000      1.00000000      1.00000000      1.00000000      1.00000000      1.00000000      1.00000000      1.00000000      1.00000000      1.00000000      1.00000000      1.00000000      1.00000000      1.00000000      1.00000000      1.00000000
      1.00000000      1.00000000      1.00000000      1.00000000      1.00000000      1.00000000      1.00000000      1.00000000      1.00000000      1.00000000      1.00000000      1.00000000      1.00000000      1.00000000      1.00000000      1.00000000      1.00000000      1.00000000      1.00000000      1.00000000
      1.00000000      1.00000000      1.00000000      1.00000000      1.00000000      1.00000000      1.00000000      1.00000000      1.00000000      1.00000000      1.00000000      1.00000000      1.00000000      1.00000000</v>
    <i name="NUPDOWN">     -1.00000000</i>
    <i type="logical" name="LSORBIT"> F  </i>
    <v name="SAXIS">      0.00000000      0.00000000      1.00000000</v>
    <i type="logical" name="LSPIRAL"> F  </i>
    <v name="QSPIRAL">      0.00000000      0.00000000      0.00000000</v>
    <i type="logical" name="LZEROZ"> F  </i>
   </separator>
   <separator name="electronic exchange-correlation" >
    <i type="logical" name="LASPH"> T  </i>
    <i type="logical" name="LMETAGGA"> F  </i>
   </separator>
   <separator name="electronic convergence" >
    <i type="int" name="NELM">   400</i>
    <i type="int" name="NELMDL">    -5</i>
    <i type="int" name="NELMIN">     2</i>
    <i name="ENINI">    520.00000000</i>
    <separator name="electronic convergence detail" >
     <i type="logical" name="LDIAG"> T  </i>
     <i type="logical" name="LSUBROT"> F  </i>
     <i name="WEIMIN">      0.00000000</i>
     <i name="EBREAK">      0.00000001</i>
     <i name="DEPER">      0.30000000</i>
     <i type="int" name="NRMM">     4</i>
     <i name="TIME">      0.40000000</i>
    </separator>
   </separator>
   <separator name="electronic mixer" >
    <i name="AMIX">      0.40000000</i>
    <i name="BMIX">      1.00000000</i>
    <i name="AMIN">      0.10000000</i>
    <i name="AMIX_MAG">      1.60000000</i>
    <i name="BMIX_MAG">      1.00000000</i>
    <separator name="electronic mixer details" >
     <i type="int" name="IMIX">     4</i>
     <i type="logical" name="MIXFIRST"> F  </i>
     <i type="int" name="MAXMIX">   -45</i>
     <i name="WC">    100.00000000</i>
     <i type="int" name="INIMIX">     1</i>
     <i type="int" name="MIXPRE">     1</i>
     <i type="int" name="MREMOVE">     5</i>
    </separator>
   </separator>
   <separator name="electronic dipolcorrection" >
    <i type="logical" name="LDIPOL"> F  </i>
    <i type="logical" name="LMONO"> F  </i>
    <i type="int" name="IDIPOL">     0</i>
    <i name="EPSILON">      1.00000000</i>
    <v name="DIPOL">   -100.00000000   -100.00000000   -100.00000000</v>
    <i name="EFIELD">      0.00000000</i>
   </separator>
  </separator>
  <separator name="grids" >
   <i type="int" name="NGX">    80</i>
   <i type="int" name="NGY">    80</i>
   <i type="int" name="NGZ">    70</i>
   <i type="int" name="NGXF">   160</i>
   <i type="int" name="NGYF">   160</i>
   <i type="int" name="NGZF">   140</i>
   <i type="logical" name="ADDGRID"> F  </i>
  </separator>
  <separator name="ionic" >
   <i type="int" name="NSW">     0</i>
   <i type="int" name="IBRION">    -1</i>
   <i type="int" name="MDALGO">     0</i>
   <i type="int" name="ISIF">     2</i>
   <i name="PSTRESS">      0.00000000</i>
   <i name="EDIFFG">      0.00010000</i>
   <i type="int" name="NFREE">     0</i>
   <i name="POTIM">      0.50000000</i>
   <i name="SMASS">     -3.00000000</i>
   <i name="SCALEE">      1.00000000</i>
  </separator>
  <separator name="ionic md" >
   <i name="TEBEG">      0.00010000</i>
   <i name="TEEND">      0.00010000</i>
   <i type="int" name="NBLOCK">     1</i>
   <i type="int" name="KBLOCK">     1</i>
   <i type="int" name="NPACO">   256</i>
   <i name="APACO">     10.00000000</i>
  </separator>
  <separator name="symmetry" >
   <i type="int" name="ISYM">     2</i>
   <i name="SYMPREC">      0.00001000</i>
  </separator>
  <separator name="dos" >
   <i type="int" name="LORBIT">     0</i>
   <v name="RWIGS">     -1.00000000</v>
   <i type="int" name="NEDOS">   301</i>
   <i name="EMIN">     10.00000000</i>
   <i name="EMAX">    -10.00000000</i>
   <i name="EFERMI">      0.00000000</i>
  </separator>
  <separator name="writing" >
   <i type="int" name="NWRITE">     2</i>
   <i type="logical" name="LWAVE"> F  </i>
   <i type="logical" name="LDOWNSAMPLE"> F  </i>
   <i type="logical" name="LCHARG"> F  </i>
   <i type="logical" name="LPARD"> F  </i>
   <i type="logical" name="LVTOT"> F  </i>
   <i type="logical" name="LVHAR"> F  </i>
   <i type="logical" name="LELF"> F  </i>
   <i type="logical" name="LOPTICS"> F  </i>
   <v name="STM">      0.00000000      0.00000000      0.00000000      0.00000000      0.00000000      0.00000000      0.00000000</v>
  </separator>
  <separator name="performance" >
   <i type="int" name="NPAR">     6</i>
   <i type="int" name="NSIM">     4</i>
   <i type="int" name="NBLK">    -1</i>
   <i type="logical" name="LPLANE"> T  </i>
   <i type="logical" name="LSCALAPACK"> T  </i>
   <i type="logical" name="LSCAAWARE"> T  </i>
   <i type="logical" name="LSCALU"> F  </i>
   <i type="logical" name="LASYNC"> F  </i>
   <i type="logical" name="LORBITALREAL"> F  </i>
  </separator>
  <separator name="miscellaneous" >
   <i type="int" name="IDIOT">     3</i>
   <i type="int" name="PHON_NSTRUCT">    -1</i>
   <i type="logical" name="LMUSIC"> F  </i>
   <v name="POMASS">    180.94800000</v>
   <v name="DARWINR">      0.00000000</v>
   <v name="DARWINV">      1.00000000</v>
   <i type="logical" name="LCORR"> T  </i>
  </separator>
  <i type="logical" name="GGA_COMPAT"> T  </i>
  <i type="logical" name="LBERRY"> F  </i>
  <i type="int" name="ICORELEVEL">     0</i>
  <i type="logical" name="LDAU"> F  </i>
  <i type="int" name="I_CONSTRAINED_M">     0</i>
  <separator name="electronic exchange-correlation" >
   <i type="string" name="GGA">--</i>
   <i type="int" name="VOSKOWN">     0</i>
   <i type="logical" name="LHFCALC"> F  </i>
   <i type="string" name="PRECFOCK"></i>
   <i type="logical" name="LSYMGRAD"> F  </i>
   <i type="logical" name="LHFONE"> F  </i>
   <i type="logical" name="LRHFCALC"> F  </i>
   <i type="logical" name="LTHOMAS"> F  </i>
   <i type="logical" name="LMODELHF"> F  </i>
   <i type="logical" name="LFOCKACE"> F  </i>
   <i name="ENCUT4O">     -1.00000000</i>
   <i type="int" name="EXXOEP">     0</i>
   <i type="int" name="FOURORBIT">     0</i>
   <i name="AEXX">      0.00000000</i>
   <i name="HFALPHA">      0.00000000</i>
   <i name="MCALPHA">      0.00000000</i>
   <i name="ALDAX">      1.00000000</i>
   <i name="AGGAX">      1.00000000</i>
   <i name="ALDAC">      1.00000000</i>
   <i name="AGGAC">      1.00000000</i>
   <i type="int" name="NKREDX">     1</i>
   <i type="int" name="NKREDY">     1</i>
   <i type="int" name="NKREDZ">     1</i>
   <i type="logical" name="SHIFTRED"> F  </i>
   <i type="logical" name="ODDONLY"> F  </i>
   <i type="logical" name="EVENONLY"> F  </i>
   <i type="int" name="LMAXFOCK">     0</i>
   <i type="int" name="NMAXFOCKAE">     0</i>
   <i type="logical" name="LFOCKAEDFT"> F  </i>
   <i name="HFSCREEN">      0.00000000</i>
   <i name="HFSCREENC">      0.00000000</i>
   <i type="int" name="NBANDSGWLOW">     0</i>
  </separator>
  <separator name="vdW DFT" >
   <i type="logical" name="LUSE_VDW"> F  </i>
   <i name="Zab_VDW">     -0.84910000</i>
   <i name="PARAM1">      0.12340000</i>
   <i name="PARAM2">      1.00000000</i>
   <i name="PARAM3">      0.00000000</i>
  </separator>
  <separator name="model GW" >
   <i type="int" name="MODEL_GW">     0</i>
   <i name="MODEL_EPS0">     10.39980657</i>
   <i name="MODEL_ALPHA">      1.00000000</i>
  </separator>
  <separator name="linear response parameters" >
   <i type="logical" name="LEPSILON"> F  </i>
   <i type="logical" name="LRPA"> F  </i>
   <i type="logical" name="LNABLA"> F  </i>
   <i type="logical" name="LVEL"> F  </i>
   <i name="CSHIFT">      0.10000000</i>
   <i name="OMEGAMAX">     -1.00000000</i>
   <i name="DEG_THRESHOLD">      0.00200000</i>
   <i name="RTIME">     -0.10000000</i>
   <i name="WPLASMAI">      0.00000000</i>
   <v name="DFIELD">      0.00000000      0.00000000      0.00000000</v>
   <v name="WPLASMA">      0.00000000      0.00000000      0.00000000      0.00000000      0.00000000      0.00000000      0.00000000      0.00000000      0.00000000</v>
  </separator>
  <separator name="orbital magnetization" >
   <i type="logical" name="NUCIND"> F  </i>
   <v name="MAGPOS">      0.00000000      0.00000000      0.00000000</v>
   <i type="logical" name="LNICSALL"> T  </i>
   <i type="logical" name="ORBITALMAG"> F  </i>
   <i type="logical" name="LMAGBLOCH"> F  </i>
   <i type="logical" name="LCHIMAG"> F  </i>
   <i type="logical" name="LGAUGE"> T  </i>
   <i type="int" name="MAGATOM">     0</i>
   <v name="MAGDIPOL">      0.00000000      0.00000000      0.00000000</v>
   <v name="AVECCONST">      0.00000000      0.00000000      0.00000000</v>
  </separator>
  <separator name="response functions" >
   <i type="logical" name="LFINITE_TEMPERATURE"> F  </i>
   <i type="logical" name="LADDER"> F  </i>
   <i type="logical" name="LRPAFORCE"> F  </i>
   <i type="logical" name="LFXC"> F  </i>
   <i type="logical" name="LHARTREE"> T  </i>
   <i type="int" name="IBSE">     0</i>
   <v type="int" name="KPOINT">    -1     0     0     0</v>
   <i type="logical" name="LTCTC"> F  </i>
   <i type="logical" name="LTCTE"> F  </i>
   <i type="logical" name="LTETE"> F  </i>
   <i type="logical" name="LTRIPLET"> F  </i>
   <i type="logical" name="LFXCEPS"> F  </i>
   <i type="logical" name="LFXHEG"> F  </i>
   <i type="int" name="NATURALO">     2</i>
   <i type="logical" name="LHOLEGF"> F  </i>
   <i type="logical" name="L2ORDER"> F  </i>
   <i type="logical" name="LDMP1"> F  </i>
   <i type="logical" name="LMP2LT"> F  </i>
   <i type="logical" name="LSMP2LT"> F  </i>
   <i type="logical" name="LGWLF"> F  </i>
   <i name="ENCUTGW">     -2.00000000</i>
   <i name="ENCUTGWSOFT">     -2.00000000</i>
   <i name="ENCUTLF">     -1.00000000</i>
   <i type="logical" name="LESF_SPLINES"> F  </i>
   <i type="int" name="LMAXMP2">    -1</i>
   <i name="SCISSOR">      0.00000000</i>
   <i type="int" name="NOMEGA">     0</i>
   <i type="int" name="NOMEGAR">     0</i>
   <i type="int" name="NBANDSGW">    -1</i>
   <i type="int" name="NBANDSO">    -1</i>
   <i type="int" name="NBANDSV">    -1</i>
   <i type="int" name="NELMGW">     1</i>
   <i type="int" name="NELMHF">     1</i>
   <i type="int" name="DIM">     3</i>
   <i type="int" name="IESPILON">     4</i>
   <i type="int" name="ANTIRES">     0</i>
   <i name="OMEGAMAX">    -30.00000000</i>
   <i name="OMEGAMIN">    -30.00000000</i>
   <i name="OMEGATL">   -200.00000000</i>
   <i type="int" name="OMEGAGRID">     0</i>
   <i name="CSHIFT">     -0.10000000</i>
   <i type="logical" name="LSELFENERGY"> F  </i>
   <i type="logical" name="LSPECTRAL"> F  </i>
   <i type="logical" name="LSPECTRALGW"> F  </i>
   <i type="logical" name="LSINGLES"> F  </i>
   <i type="logical" name="LFERMIGW"> F  </i>
   <i type="logical" name="ODDONLYGW"> F  </i>
   <i type="logical" name="EVENONLYGW"> F  </i>
   <i type="int" name="NKREDLFX">     1</i>
   <i type="int" name="NKREDLFY">     1</i>
   <i type="int" name="NKREDLFZ">     1</i>
   <i type="int" name="MAXMEM">  2800</i>
   <i type="int" name="TELESCOPE">     0</i>
   <i type="int" name="NTAUPAR">    -1</i>
   <i type="int" name="NOMEGAPAR">    -1</i>
   <i name="DAMP_NEWTON">      0.80000001</i>
   <i name="LAMBDA">      1.00000000</i>
  </separator>
  <separator name="External order field" >
   <i name="OFIELD_KAPPA">      0.00000000</i>
   <v name="OFIELD_K">      0.00000000      0.00000000      0.00000000</v>
   <i name="OFIELD_Q6_NEAR">      0.00000000</i>
   <i name="OFIELD_Q6_FAR">      0.00000000</i>
   <i name="OFIELD_A">      0.00000000</i>
  </separator>
  <separator name="optional k-points parameters" >
   <i type="int" name="KPOINTS_OPT_MODE">     1</i>
   <i type="logical" name="LKPOINTS_OPT"> F  </i>
  </separator>
 </parameters>
 <atominfo>
  <atoms>      54 </atoms>
  <types>       1 </types>
  <array name="atoms" >
   <dimension dim="1">ion</dimension>
   <field type="string">element</field>
   <field type="int">atomtype</field>
   <set>
    <rc><c>Ta</c><c>   1</c></rc>
    <rc><c>Ta</c><c>   1</c></rc>
    <rc><c>Ta</c><c>   1</c></rc>
    <rc><c>Ta</c><c>   1</c></rc>
    <rc><c>Ta</c><c>   1</c></rc>
    <rc><c>Ta</c><c>   1</c></rc>
    <rc><c>Ta</c><c>   1</c></rc>
    <rc><c>Ta</c><c>   1</c></rc>
    <rc><c>Ta</c><c>   1</c></rc>
    <rc><c>Ta</c><c>   1</c></rc>
    <rc><c>Ta</c><c>   1</c></rc>
    <rc><c>Ta</c><c>   1</c></rc>
    <rc><c>Ta</c><c>   1</c></rc>
    <rc><c>Ta</c><c>   1</c></rc>
    <rc><c>Ta</c><c>   1</c></rc>
    <rc><c>Ta</c><c>   1</c></rc>
    <rc><c>Ta</c><c>   1</c></rc>
    <rc><c>Ta</c><c>   1</c></rc>
    <rc><c>Ta</c><c>   1</c></rc>
    <rc><c>Ta</c><c>   1</c></rc>
    <rc><c>Ta</c><c>   1</c></rc>
    <rc><c>Ta</c><c>   1</c></rc>
    <rc><c>Ta</c><c>   1</c></rc>
    <rc><c>Ta</c><c>   1</c></rc>
    <rc><c>Ta</c><c>   1</c></rc>
    <rc><c>Ta</c><c>   1</c></rc>
    <rc><c>Ta</c><c>   1</c></rc>
    <rc><c>Ta</c><c>   1</c></rc>
    <rc><c>Ta</c><c>   1</c></rc>
    <rc><c>Ta</c><c>   1</c></rc>
    <rc><c>Ta</c><c>   1</c></rc>
    <rc><c>Ta</c><c>   1</c></rc>
    <rc><c>Ta</c><c>   1</c></rc>
    <rc><c>Ta</c><c>   1</c></rc>
    <rc><c>Ta</c><c>   1</c></rc>
    <rc><c>Ta</c><c>   1</c></rc>
    <rc><c>Ta</c><c>   1</c></rc>
    <rc><c>Ta</c><c>   1</c></rc>
    <rc><c>Ta</c><c>   1</c></rc>
    <rc><c>Ta</c><c>   1</c></rc>
    <rc><c>Ta</c><c>   1</c></rc>
    <rc><c>Ta</c><c>   1</c></rc>
    <rc><c>Ta</c><c>   1</c></rc>
    <rc><c>Ta</c><c>   1</c></rc>
    <rc><c>Ta</c><c>   1</c></rc>
    <rc><c>Ta</c><c>   1</c></rc>
    <rc><c>Ta</c><c>   1</c></rc>
    <rc><c>Ta</c><c>   1</c></rc>
    <rc><c>Ta</c><c>   1</c></rc>
    <rc><c>Ta</c><c>   1</c></rc>
    <rc><c>Ta</c><c>   1</c></rc>
    <rc><c>Ta</c><c>   1</c></rc>
    <rc><c>Ta</c><c>   1</c></rc>
    <rc><c>Ta</c><c>   1</c></rc>
   </set>
  </array>
  <array name="atomtypes" >
   <dimension dim="1">type</dimension>
   <field type="int">atomspertype</field>
   <field type="string">element</field>
   <field>mass</field>
   <field>valence</field>
   <field type="string">pseudopotential</field>
   <set>
    <rc><c>  54</c><c>Ta</c><c>    180.94800000</c><c>     11.00000000</c><c>  PAW_PBE Ta_pv 07Sep2000               </c></rc>
   </set>
  </array>
 </atominfo>
 <structure name="initialpos" >
  <crystal>
   <varray name="basis" >
    <v>       9.78380760      -0.00000000      -0.00000000 </v>
    <v>       0.10643884      10.10515987      -0.00000000 </v>
    <v>       0.02278387      -0.40023586       9.46709378 </v>
   </varray>
   <i name="volume">    935.98259171 </i>
   <varray name="rec_basis" >
    <v>       0.10220970      -0.00107659      -0.00029150 </v>
    <v>       0.00000000       0.09895934       0.00418366 </v>
    <v>       0.00000000       0.00000000       0.10562904 </v>
   </varray>
  </crystal>
  <varray name="positions" >
   <v>       0.00368162       0.00524083       0.99559341 </v>
   <v>       0.00203294       0.99794354       0.33192893 </v>
   <v>       0.00646396       0.00097994       0.66812822 </v>
   <v>       0.99941350       0.33018067       0.99698813 </v>
   <v>       0.00454593       0.33767037       0.32592864 </v>
   <v>       0.99959559       0.32790996       0.66097656 </v>
   <v>       0.00046081       0.66101186       0.99959213 </v>
   <v>       0.99288050       0.66515247       0.33150493 </v>
   <v>       0.99894302       0.65956076       0.65938421 </v>
   <v>       0.34122558       0.00236868       0.99479160 </v>
   <v>       0.32931153       0.00101150       0.32603497 </v>
   <v>       0.34107143       0.99973731       0.67128678 </v>
   <v>       0.33108939       0.34133695       0.99572257 </v>
   <v>       0.33675240       0.33545201       0.33353512 </v>
   <v>       0.33229960       0.32846402       0.66340188 </v>
   <v>       0.32961573       0.67169096       0.00707105 </v>
   <v>       0.33401187       0.66984171       0.33069159 </v>
   <v>       0.32992321       0.66217137       0.67036307 </v>
   <v>       0.66496172       0.99796292       0.00593146 </v>
   <v>       0.66596713       0.99800117       0.33052767 </v>
   <v>       0.66550165       0.99284047       0.66991846 </v>
   <v>       0.66610464       0.33273830       0.00708637 </v>
   <v>       0.66500257       0.34119861       0.33330765 </v>
   <v>       0.66079565       0.33368037       0.65965650 </v>
   <v>       0.66616888       0.66242427       0.00917664 </v>
   <v>       0.66978511       0.66610447       0.34207958 </v>
   <v>       0.66246859       0.67210571       0.66173459 </v>
   <v>       0.16853700       0.16375452       0.15897348 </v>
   <v>       0.16236067       0.16643803       0.50269321 </v>
   <v>       0.16219877       0.16796584       0.82555412 </v>
   <v>       0.15940897       0.50516103       0.16658406 </v>
   <v>       0.16309649       0.49831377       0.49312378 </v>
   <v>       0.16704337       0.49822602       0.83099705 </v>
   <v>       0.17431954       0.83901208       0.16938984 </v>
   <v>       0.17510037       0.83403245       0.49809164 </v>
   <v>       0.16339631       0.82895550       0.83898611 </v>
   <v>       0.50553864       0.16741718       0.17154054 </v>
   <v>       0.50281186       0.16028934       0.50481463 </v>
   <v>       0.50429264       0.16358965       0.83220371 </v>
   <v>       0.49535858       0.50346402       0.16862702 </v>
   <v>       0.49479701       0.50499104       0.49934036 </v>
   <v>       0.49791901       0.50365857       0.82866492 </v>
   <v>       0.49709044       0.83752087       0.16038734 </v>
   <v>       0.49600595       0.84037642       0.49451501 </v>
   <v>       0.50835862       0.83615231       0.83356693 </v>
   <v>       0.82438433       0.16247975       0.16447195 </v>
   <v>       0.82920252       0.16421630       0.50572919 </v>
   <v>       0.83003218       0.15953324       0.82807710 </v>
   <v>       0.82743538       0.50217158       0.16553250 </v>
   <v>       0.83095514       0.50655741       0.50529982 </v>
   <v>       0.82399177       0.50090513       0.83742195 </v>
   <v>       0.83340542       0.83941056       0.16076367 </v>
   <v>       0.82595049       0.82782293       0.49600947 </v>
   <v>       0.83660397       0.83798421       0.83397447 </v>
  </varray>
 </structure>
 <calculation>
  <scstep>
   <time name="dav">   22.16   22.31</time>
   <time name="total">   22.32   22.49</time>
   <energy>
    <i name="alphaZ">   7142.24044989 </i>
    <i name="ewald"> -52429.04065269 </i>
    <i name="hartreedc">  -6647.73408735 </i>
    <i name="XCdc">   1282.13824067 </i>
    <i name="pawpsdc">  44331.21465257 </i>
    <i name="pawaedc"> -43439.79610504 </i>
    <i name="eentropy">     -0.00242779 </i>
    <i name="bandstr">     87.39764815 </i>
    <i name="atom">  56548.62480702 </i>
    <i name="e_fr_energy">   6875.04252544 </i>
    <i name="e_wo_entrp">   6875.04495323 </i>
    <i name="e_0_energy">   6875.04333470 </i>
   </energy>
  </scstep>
  <scstep>
   <time name="dav">   22.46   22.54</time>
   <time name="total">   22.47   22.54</time>
   <energy>
    <i name="e_fr_energy">   -194.28133686 </i>
    <i name="e_wo_entrp">   -194.28545099 </i>
    <i name="e_0_energy">   -194.28270824 </i>
   </energy>
  </scstep>
  <scstep>
   <time name="dav">   26.42   26.57</time>
   <time name="total">   26.43   26.58</time>
   <energy>
    <i name="e_fr_energy">   -633.89906864 </i>
    <i name="e_wo_entrp">   -633.89894495 </i>
    <i name="e_0_energy">   -633.89902741 </i>
   </energy>
  </scstep>
  <scstep>
   <time name="dav">   25.26   25.34</time>
   <time name="total">   25.27   25.34</time>
   <energy>
    <i name="e_fr_energy">   -655.64477346 </i>
    <i name="e_wo_entrp">   -655.64481900 </i>
    <i name="e_0_energy">   -655.64478864 </i>
   </energy>
  </scstep>
  <scstep>
   <time name="dav">   26.93   27.05</time>
   <time name="total">   27.50   27.63</time>
   <energy>
    <i name="e_fr_energy">   -656.56285999 </i>
    <i name="e_wo_entrp">   -656.56288400 </i>
    <i name="e_0_energy">   -656.56286799 </i>
   </energy>
  </scstep>
  <scstep>
   <time name="dav">   25.24   25.31</time>
   <time name="total">   25.95   26.03</time>
   <energy>
    <i name="e_fr_energy">   -639.14733435 </i>
    <i name="e_wo_entrp">   -639.14886460 </i>
    <i name="e_0_energy">   -639.14784443 </i>
   </energy>
  </scstep>
  <scstep>
   <time name="dav">   26.69   26.82</time>
   <time name="total">   27.41   27.56</time>
   <energy>
    <i name="e_fr_energy">   -641.73005455 </i>
    <i name="e_wo_entrp">   -641.72605561 </i>
    <i name="e_0_energy">   -641.72872157 </i>
   </energy>
  </scstep>
  <scstep>
   <time name="dav">   26.80   26.87</time>
   <time name="total">   27.51   27.60</time>
   <energy>
    <i name="e_fr_energy">   -633.20327124 </i>
    <i name="e_wo_entrp">   -633.20333233 </i>
    <i name="e_0_energy">   -633.20329160 </i>
   </energy>
  </scstep>
  <scstep>
   <time name="dav">   26.56   26.69</time>
   <time name="total">   27.27   27.42</time>
   <energy>
    <i name="e_fr_energy">   -633.21614034 </i>
    <i name="e_wo_entrp">   -633.21526299 </i>
    <i name="e_0_energy">   -633.21584789 </i>
   </energy>
  </scstep>
  <scstep>
   <time name="dav">   25.97   26.04</time>
   <time name="total">   26.68   26.77</time>
   <energy>
    <i name="e_fr_energy">   -633.17530783 </i>
    <i name="e_wo_entrp">   -633.17580768 </i>
    <i name="e_0_energy">   -633.17547445 </i>
   </energy>
  </scstep>
  <scstep>
   <time name="dav">   26.06   26.18</time>
   <time name="total">   26.78   26.91</time>
   <energy>
    <i name="e_fr_energy">   -633.16003225 </i>
    <i name="e_wo_entrp">   -633.16047594 </i>
    <i name="e_0_energy">   -633.16018015 </i>
   </energy>
  </scstep>
  <scstep>
   <time name="dav">   26.12   26.18</time>
   <time name="total">   26.84   26.91</time>
   <energy>
    <i name="e_fr_energy">   -633.15856530 </i>
    <i name="e_wo_entrp">   -633.15876816 </i>
    <i name="e_0_energy">   -633.15863292 </i>
   </energy>
  </scstep>
  <scstep>
   <time name="dav">   25.88   25.99</time>
   <time name="total">   26.59   26.72</time>
   <energy>
    <i name="e_fr_energy">   -633.15520173 </i>
    <i name="e_wo_entrp">   -633.15557463 </i>
    <i name="e_0_energy">   -633.15532603 </i>
   </energy>
  </scstep>
  <scstep>
   <time name="dav">   26.08   26.20</time>
   <time name="total">   26.79   26.93</time>
   <energy>
    <i name="e_fr_energy">   -633.15476308 </i>
    <i name="e_wo_entrp">   -633.15505001 </i>
    <i name="e_0_energy">   -633.15485873 </i>
   </energy>
  </scstep>
  <scstep>
   <time name="dav">   25.90   25.97</time>
   <time name="total">   26.62   26.70</time>
   <energy>
    <i name="e_fr_energy">   -633.15469794 </i>
    <i name="e_wo_entrp">   -633.15498814 </i>
    <i name="e_0_energy">   -633.15479467 </i>
   </energy>
  </scstep>
  <scstep>
   <time name="dav">   26.19   26.30</time>
   <time name="total">   26.91   27.03</time>
   <energy>
    <i name="e_fr_energy">   -633.15463887 </i>
    <i name="e_wo_entrp">   -633.15488249 </i>
    <i name="e_0_energy">   -633.15472007 </i>
   </energy>
  </scstep>
  <scstep>
   <time name="dav">   22.57   22.63</time>
   <time name="total">   23.30   23.37</time>
   <energy>
    <i name="e_fr_energy">   -633.15461990 </i>
    <i name="e_wo_entrp">   -633.15488754 </i>
    <i name="e_0_energy">   -633.15470912 </i>
   </energy>
  </scstep>
  <scstep>
   <time name="dav">   20.14   20.25</time>
   <time name="total">   20.86   20.98</time>
   <energy>
    <i name="e_fr_energy">   -633.15460819 </i>
    <i name="e_wo_entrp">   -633.15487329 </i>
    <i name="e_0_energy">   -633.15469656 </i>
   </energy>
  </scstep>
  <scstep>
   <time name="dav">   16.01   16.05</time>
   <time name="total">   16.16   16.22</time>
   <energy>
    <i name="alphaZ">   7142.24044989 </i>
    <i name="ewald"> -52429.04065269 </i>
    <i name="hartreedc">  -5878.42078636 </i>
    <i name="XCdc">   1245.43556240 </i>
    <i name="pawpsdc">  93981.83721320 </i>
    <i name="pawaedc"> -93249.18246098 </i>
    <i name="eentropy">      0.00026620 </i>
    <i name="bandstr">  -7994.64900392 </i>
    <i name="atom">  56548.62480702 </i>
    <i name="e_fr_energy">   -633.15460525 </i>
    <i name="e_wo_entrp">   -633.15487144 </i>
    <i name="e_0_energy">   -633.15469398 </i>
   </energy>
  </scstep>
  <structure>
   <crystal>
    <varray name="basis" >
     <v>       9.78380760      -0.00000000      -0.00000000 </v>
     <v>       0.10643884      10.10515987      -0.00000000 </v>
     <v>       0.02278387      -0.40023586       9.46709378 </v>
    </varray>
    <i name="volume">    935.98259171 </i>
    <varray name="rec_basis" >
     <v>       0.10220970      -0.00107659      -0.00029150 </v>
     <v>       0.00000000       0.09895934       0.00418366 </v>
     <v>       0.00000000       0.00000000       0.10562904 </v>
    </varray>
   </crystal>
   <varray name="positions" >
    <v>       0.00368162       0.00524083       0.99559341 </v>
    <v>       0.00203294       0.99794354       0.33192893 </v>
    <v>       0.00646396       0.00097994       0.66812822 </v>
    <v>       0.99941350       0.33018067       0.99698813 </v>
    <v>       0.00454593       0.33767037       0.32592864 </v>
    <v>       0.99959559       0.32790996       0.66097656 </v>
    <v>       0.00046081       0.66101186       0.99959213 </v>
    <v>       0.99288050       0.66515247       0.33150493 </v>
    <v>       0.99894302       0.65956076       0.65938421 </v>
    <v>       0.34122558       0.00236868       0.99479160 </v>
    <v>       0.32931153       0.00101150       0.32603497 </v>
    <v>       0.34107143       0.99973731       0.67128678 </v>
    <v>       0.33108939       0.34133695       0.99572257 </v>
    <v>       0.33675240       0.33545201       0.33353512 </v>
    <v>       0.33229960       0.32846402       0.66340188 </v>
    <v>       0.32961573       0.67169096       0.00707105 </v>
    <v>       0.33401187       0.66984171       0.33069159 </v>
    <v>       0.32992321       0.66217137       0.67036307 </v>
    <v>       0.66496172       0.99796292       0.00593146 </v>
    <v>       0.66596713       0.99800117       0.33052767 </v>
    <v>       0.66550165       0.99284047       0.66991846 </v>
    <v>       0.66610464       0.33273830       0.00708637 </v>
    <v>       0.66500257       0.34119861       0.33330765 </v>
    <v>       0.66079565       0.33368037       0.65965650 </v>
    <v>       0.66616888       0.66242427       0.00917664 </v>
    <v>       0.66978511       0.66610447       0.34207958 </v>
    <v>       0.66246859       0.67210571       0.66173459 </v>
    <v>       0.16853700       0.16375452       0.15897348 </v>
    <v>       0.16236067       0.16643803       0.50269321 </v>
    <v>       0.16219877       0.16796584       0.82555412 </v>
    <v>       0.15940897       0.50516103       0.16658406 </v>
    <v>       0.16309649       0.49831377       0.49312378 </v>
    <v>       0.16704337       0.49822602       0.83099705 </v>
    <v>       0.17431954       0.83901208       0.16938984 </v>
    <v>       0.17510037       0.83403245       0.49809164 </v>
    <v>       0.16339631       0.82895550       0.83898611 </v>
    <v>       0.50553864       0.16741718       0.17154054 </v>
    <v>       0.50281186       0.16028934       0.50481463 </v>
    <v>       0.50429264       0.16358965       0.83220371 </v>
    <v>       0.49535858       0.50346402       0.16862702 </v>
    <v>       0.49479701       0.50499104       0.49934036 </v>
    <v>       0.49791901       0.50365857       0.82866492 </v>
    <v>       0.49709044       0.83752087       0.16038734 </v>
    <v>       0.49600595       0.84037642       0.49451501 </v>
    <v>       0.50835862       0.83615231       0.83356693 </v>
    <v>       0.82438433       0.16247975       0.16447195 </v>
    <v>       0.82920252       0.16421630       0.50572919 </v>
    <v>       0.83003218       0.15953324       0.82807710 </v>
    <v>       0.82743538       0.50217158       0.16553250 </v>
    <v>       0.83095514       0.50655741       0.50529982 </v>
    <v>       0.82399177       0.50090513       0.83742195 </v>
    <v>       0.83340542       0.83941056       0.16076367 </v>
    <v>       0.82595049       0.82782293       0.49600947 </v>
    <v>       0.83660397       0.83798421       0.83397447 </v>
   </varray>
  </structure>
  <varray name="forces" >
   <v>      -0.29174640      -0.27577660       0.24653493 </v>
   <v>      -0.35388796       0.19277389       0.13064046 </v>
   <v>      -0.78453610      -0.71165979      -0.66398953 </v>
   <v>      -0.40615672       0.29900723       0.07971074 </v>
   <v>      -1.00392333      -0.63205589       0.30756721 </v>
   <v>      -0.56891867       0.79723094       0.49300584 </v>
   <v>      -0.33549283       0.59245512      -0.07094072 </v>
   <v>       0.49755947       0.64573515       0.17918635 </v>
   <v>       0.20754577       0.73892881       0.96720682 </v>
   <v>      -0.67559821       0.01969268       0.09069345 </v>
   <v>       0.68436062       0.63610914       0.83742231 </v>
   <v>      -0.95472043       0.01679082      -0.04525298 </v>
   <v>       0.11077734      -0.77739365       0.15803814 </v>
   <v>      -0.71970148      -0.23275018      -0.16878667 </v>
   <v>       0.07873156       0.43910759       0.04690331 </v>
   <v>       0.25345429      -0.63113772      -1.00979826 </v>
   <v>      -0.31155277      -0.14770195       0.15788434 </v>
   <v>       0.11524058       0.75255013      -0.36772230 </v>
   <v>       0.23195334       0.38283825      -0.87647520 </v>
   <v>       0.22679426       0.03582391       0.35522552 </v>
   <v>       0.25227439       0.48070597      -0.52267703 </v>
   <v>      -0.36085082       0.19758061      -0.72236296 </v>
   <v>       0.05486018      -0.49553307       0.45037313 </v>
   <v>       0.34942918       0.04182330       0.78062809 </v>
   <v>      -0.15206352       0.78573850      -0.86818712 </v>
   <v>      -0.93818894       0.24525210      -1.25501423 </v>
   <v>       0.10112602      -0.37371261       0.54745471 </v>
   <v>       0.08059145       0.67183781       0.47519081 </v>
   <v>       0.57681055      -0.12901182      -0.88935358 </v>
   <v>       0.92045602      -0.00848087       0.71963871 </v>
   <v>       0.86523453      -0.44330444      -0.11488415 </v>
   <v>       0.39939891       0.00047778       0.35872072 </v>
   <v>      -0.38753012      -0.00725928       0.01369066 </v>
   <v>      -1.22985555      -0.42963053      -0.61134657 </v>
   <v>      -0.70807418      -0.38902759       0.12947368 </v>
   <v>       0.29113338       0.24158024      -0.78089160 </v>
   <v>      -0.75526411       0.31567067      -0.43925060 </v>
   <v>      -0.19942047       0.34583896      -0.77913732 </v>
   <v>      -0.17196180       0.60087635       0.25426312 </v>
   <v>       0.28965413      -0.15392807      -0.07090698 </v>
   <v>       0.09411298      -0.31833134       0.22636063 </v>
   <v>       0.09911978      -0.26212843       0.62196801 </v>
   <v>       0.48515209      -0.37615709       0.96518529 </v>
   <v>       0.08857699      -0.56569240       0.39477154 </v>
   <v>      -0.75881849      -0.68751543       0.29976232 </v>
   <v>       1.17615363       0.44295073       0.49041666 </v>
   <v>       0.37609712       0.11041177      -0.79151430 </v>
   <v>       0.24984060       0.59413069       0.40570640 </v>
   <v>       0.77332208      -0.43486481      -0.05723529 </v>
   <v>       0.16403291      -1.13528565      -0.58461181 </v>
   <v>       0.53036845      -0.42514166      -0.67142771 </v>
   <v>       0.20526769      -0.68723259       0.53259542 </v>
   <v>       1.12822220       0.91066765       0.55994109 </v>
   <v>       0.11061044      -0.80387334       0.08560653 </v>
  </varray>
  <varray name="stress" >
   <v>     132.44033992      -7.89888585      -1.26763347 </v>
   <v>      -7.89888552      90.62834932      33.14230212 </v>
   <v>      -1.26763383      33.14230424     165.44118352 </v>
  </varray>
  <energy>
   <i name="e_fr_energy">   -633.15460525 </i>
   <i name="e_wo_entrp">   -633.15487144 </i>
   <i name="e_0_energy">   -633.15469398 </i>
  </energy>
  <time name="totalsc">  499.65  501.83</time>
  <eigenvalues>
   <array>
    <dimension dim="1">band</dimension>
    <dimension dim="2">kpoint</dimension>
    <dimension dim="3">spin</dimension>
    <field>eigene</field>
    <field>occ</field>
    <set>
     <set comment="spin 1">
      <set comment="kpoint 1">
       <r>  -28.4182    1.0000 </r>
       <r>  -28.4108    1.0000 </r>
       <r>  -28.4003    1.0000 </r>
       <r>  -28.3964    1.0000 </r>
       <r>  -28.3747    1.0000 </r>
       <r>  -28.3700    1.0000 </r>
       <r>  -28.3569    1.0000 </r>
       <r>  -28.3514    1.0000 </r>
       <r>  -28.3403    1.0000 </r>
       <r>  -28.3356    1.0000 </r>
       <r>  -28.3163    1.0000 </r>
       <r>  -28.3072    1.0000 </r>
       <r>  -28.2692    1.0000 </r>
       <r>  -28.2618    1.0000 </r>
       <r>  -28.2365    1.0000 </r>
       <r>  -28.2266    1.0000 </r>
       <r>  -28.1941    1.0000 </r>
       <r>  -28.1825    1.0000 </r>
       <r>  -28.1792    1.0000 </r>
       <r>  -28.1699    1.0000 </r>
       <r>  -28.1685    1.0000 </r>
       <r>  -28.1671    1.0000 </r>
       <r>  -28.1627    1.0000 </r>
       <r>  -28.1560    1.0000 </r>
       <r>  -28.1503    1.0000 </r>
       <r>  -28.1471    1.0000 </r>
       <r>  -28.1430    1.0000 </r>
       <r>  -28.1361    1.0000 </r>
       <r>  -28.1355    1.0000 </r>
       <r>  -28.1347    1.0000 </r>
       <r>  -28.1255    1.0000 </r>
       <r>  -28.1178    1.0000 </r>
       <r>  -28.1113    1.0000 </r>
       <r>  -28.1028    1.0000 </r>
       <r>  -28.0961    1.0000 </r>
       <r>  -28.0942    1.0000 </r>
       <r>  -28.0842    1.0000 </r>
       <r>  -28.0738    1.0000 </r>
       <r>  -28.0679    1.0000 </r>
       <r>  -28.0660    1.0000 </r>
       <r>  -28.0616    1.0000 </r>
       <r>  -28.0564    1.0000 </r>
       <r>  -28.0509    1.0000 </r>
       <r>  -28.0461    1.0000 </r>
       <r>  -28.0428    1.0000 </r>
       <r>  -28.0326    1.0000 </r>
       <r>  -28.0299    1.0000 </r>
       <r>  -28.0186    1.0000 </r>
       <r>  -28.0156    1.0000 </r>
       <r>  -28.0112    1.0000 </r>
       <r>  -28.0040    1.0000 </r>
       <r>  -27.9942    1.0000 </r>
       <r>  -27.9923    1.0000 </r>
       <r>  -27.9833    1.0000 </r>
       <r>  -27.9780    1.0000 </r>
       <r>  -27.9715    1.0000 </r>
       <r>  -27.9165    1.0000 </r>
       <r>  -27.8847    1.0000 </r>
       <r>  -27.8814    1.0000 </r>
       <r>  -27.8632    1.0000 </r>
       <r>  -27.8517    1.0000 </r>
       <r>  -27.8223    1.0000 </r>
       <r>  -27.8113    1.0000 </r>
       <r>  -27.8022    1.0000 </r>
       <r>  -27.7926    1.0000 </r>
       <r>  -27.7515    1.0000 </r>
       <r>  -27.7436    1.0000 </r>
       <r>  -27.7304    1.0000 </r>
       <r>  -27.7257    1.0000 </r>
       <r>  -27.7253    1.0000 </r>
       <r>  -27.7163    1.0000 </r>
       <r>  -27.7119    1.0000 </r>
       <r>  -27.7087    1.0000 </r>
       <r>  -27.7068    1.0000 </r>
       <r>  -27.7042    1.0000 </r>
       <r>  -27.6398    1.0000 </r>
       <r>  -27.6389    1.0000 </r>
       <r>  -27.6303    1.0000 </r>
       <r>  -27.6197    1.0000 </r>
       <r>  -27.6130    1.0000 </r>
       <r>  -27.5980    1.0000 </r>
       <r>  -27.5904    1.0000 </r>
       <r>  -27.5855    1.0000 </r>
       <r>  -27.5803    1.0000 </r>
       <r>  -27.5602    1.0000 </r>
       <r>  -27.5516    1.0000 </r>
       <r>  -27.5448    1.0000 </r>
       <r>  -27.5381    1.0000 </r>
       <r>  -27.5261    1.0000 </r>
       <r>  -27.5149    1.0000 </r>
       <r>  -27.5124    1.0000 </r>
       <r>  -27.5084    1.0000 </r>
       <r>  -27.5023    1.0000 </r>
       <r>  -27.4954    1.0000 </r>
       <r>  -27.4888    1.0000 </r>
       <r>  -27.4764    1.0000 </r>
       <r>  -27.4732    1.0000 </r>
       <r>  -27.4707    1.0000 </r>
       <r>  -27.4681    1.0000 </r>
       <r>  -27.4538    1.0000 </r>
       <r>  -27.4462    1.0000 </r>
       <r>  -27.4439    1.0000 </r>
       <r>  -27.4349    1.0000 </r>
       <r>  -27.4293    1.0000 </r>
       <r>  -27.4216    1.0000 </r>
       <r>  -27.4184    1.0000 </r>
       <r>  -27.4113    1.0000 </r>
       <r>  -27.4059    1.0000 </r>
       <r>  -27.3991    1.0000 </r>
       <r>  -27.3950    1.0000 </r>
       <r>  -27.3935    1.0000 </r>
       <r>  -27.3852    1.0000 </r>
       <r>  -27.3833    1.0000 </r>
       <r>  -27.3786    1.0000 </r>
       <r>  -27.3735    1.0000 </r>
       <r>  -27.3682    1.0000 </r>
       <r>  -27.3620    1.0000 </r>
       <r>  -27.3612    1.0000 </r>
       <r>  -27.3547    1.0000 </r>
       <r>  -27.3499    1.0000 </r>
       <r>  -27.3458    1.0000 </r>
       <r>  -27.3441    1.0000 </r>
       <r>  -27.3368    1.0000 </r>
       <r>  -27.3358    1.0000 </r>
       <r>  -27.3305    1.0000 </r>
       <r>  -27.3239    1.0000 </r>
       <r>  -27.3212    1.0000 </r>
       <r>  -27.3170    1.0000 </r>
       <r>  -27.3103    1.0000 </r>
       <r>  -27.3062    1.0000 </r>
       <r>  -27.3045    1.0000 </r>
       <r>  -27.3006    1.0000 </r>
       <r>  -27.2933    1.0000 </r>
       <r>  -27.2908    1.0000 </r>
       <r>  -27.2852    1.0000 </r>
       <r>  -27.2811    1.0000 </r>
       <r>  -27.2787    1.0000 </r>
       <r>  -27.2764    1.0000 </r>
       <r>  -27.2666    1.0000 </r>
       <r>  -27.2589    1.0000 </r>
       <r>  -27.2519    1.0000 </r>
       <r>  -27.2504    1.0000 </r>
       <r>  -27.2309    1.0000 </r>
       <r>  -27.2085    1.0000 </r>
       <r>  -27.2011    1.0000 </r>
       <r>  -27.1809    1.0000 </r>
       <r>  -27.1656    1.0000 </r>
       <r>  -27.1628    1.0000 </r>
       <r>  -27.1451    1.0000 </r>
       <r>  -27.1384    1.0000 </r>
       <r>  -27.1140    1.0000 </r>
       <r>  -27.1092    1.0000 </r>
       <r>  -27.1015    1.0000 </r>
       <r>  -27.0931    1.0000 </r>
       <r>  -27.0845    1.0000 </r>
       <r>  -27.0809    1.0000 </r>
       <r>  -27.0662    1.0000 </r>
       <r>  -27.0486    1.0000 </r>
       <r>  -27.0476    1.0000 </r>
       <r>  -27.0405    1.0000 </r>
       <r>  -27.0318    1.0000 </r>
       <r>  -27.0128    1.0000 </r>
       <r>   -2.2526    1.0000 </r>
       <r>   -0.0811    1.0000 </r>
       <r>   -0.0286    1.0000 </r>
       <r>    0.0579    1.0000 </r>
       <r>    0.0890    1.0000 </r>
       <r>    0.1992    1.0000 </r>
       <r>    0.2303    1.0000 </r>
       <r>    0.8694    1.0000 </r>
       <r>    0.8751    1.0000 </r>
       <r>    0.9085    1.0000 </r>
       <r>    0.9164    1.0000 </r>
       <r>    0.9392    1.0000 </r>
       <r>    0.9452    1.0000 </r>
       <r>    1.0648    1.0000 </r>
       <r>    1.0691    1.0000 </r>
       <r>    1.0763    1.0000 </r>
       <r>    1.0821    1.0000 </r>
       <r>    1.1074    1.0000 </r>
       <r>    1.1116    1.0000 </r>
       <r>    1.6718    1.0000 </r>
       <r>    1.8464    1.0000 </r>
       <r>    2.1149    1.0000 </r>
       <r>    2.1419    1.0000 </r>
       <r>    2.1462    1.0000 </r>
       <r>    2.1798    1.0000 </r>
       <r>    2.2146    1.0000 </r>
       <r>    2.2173    1.0000 </r>
       <r>    2.2386    1.0000 </r>
       <r>    2.2631    1.0000 </r>
       <r>    2.2719    1.0000 </r>
       <r>    2.2799    1.0000 </r>
       <r>    2.3033    1.0000 </r>
       <r>    2.3451    1.0000 </r>
       <r>    2.6829    1.0000 </r>
       <r>    2.6967    1.0000 </r>
       <r>    2.9072    1.0000 </r>
       <r>    2.9200    1.0000 </r>
       <r>    2.9253    1.0000 </r>
       <r>    2.9339    1.0000 </r>
       <r>    2.9521    1.0000 </r>
       <r>    2.9817    1.0000 </r>
       <r>    2.9966    1.0000 </r>
       <r>    3.0438    1.0000 </r>
       <r>    3.0521    1.0000 </r>
       <r>    3.0830    1.0000 </r>
       <r>    3.0850    1.0000 </r>
       <r>    3.1177    1.0000 </r>
       <r>    3.1276    1.0000 </r>
       <r>    3.1532    1.0000 </r>
       <r>    3.1605    1.0000 </r>
       <r>    3.1767    1.0000 </r>
       <r>    3.1822    1.0000 </r>
       <r>    3.1981    1.0000 </r>
       <r>    3.2041    1.0000 </r>
       <r>    3.2140    1.0000 </r>
       <r>    3.2425    1.0000 </r>
       <r>    3.2648    1.0000 </r>
       <r>    3.2810    1.0000 </r>
       <r>    3.3091    1.0000 </r>
       <r>    3.3157    1.0000 </r>
       <r>    3.3640    1.0000 </r>
       <r>    4.0432    1.0000 </r>
       <r>    4.0902    1.0000 </r>
       <r>    4.1120    1.0000 </r>
       <r>    4.1549    1.0000 </r>
       <r>    4.1591    1.0000 </r>
       <r>    4.1848    1.0000 </r>
       <r>    4.1996    1.0000 </r>
       <r>    4.2060    1.0000 </r>
       <r>    4.2152    1.0000 </r>
       <r>    4.2313    1.0000 </r>
       <r>    4.2552    1.0000 </r>
       <r>    4.2663    1.0000 </r>
       <r>    4.2765    1.0000 </r>
       <r>    4.3235    1.0000 </r>
       <r>    4.3273    1.0000 </r>
       <r>    4.3428    1.0000 </r>
       <r>    4.3438    1.0000 </r>
       <r>    4.3805    1.0000 </r>
       <r>    4.3946    1.0000 </r>
       <r>    4.4081    1.0000 </r>
       <r>    4.4569    1.0000 </r>
       <r>    4.4624    1.0000 </r>
       <r>    4.4997    1.0000 </r>
       <r>    4.5058    1.0000 </r>
       <r>    4.5227    1.0000 </r>
       <r>    4.5268    1.0000 </r>
       <r>    4.5437    1.0000 </r>
       <r>    4.5644    1.0000 </r>
       <r>    4.5940    1.0000 </r>
       <r>    4.6323    1.0000 </r>
       <r>    4.7264    1.0000 </r>
       <r>    4.8096    1.0000 </r>
       <r>    4.9029    1.0000 </r>
       <r>    4.9115    1.0000 </r>
       <r>    4.9211    1.0000 </r>
       <r>    4.9408    1.0000 </r>
       <r>    4.9453    1.0000 </r>
       <r>    4.9568    1.0000 </r>
       <r>    4.9653    1.0000 </r>
       <r>    4.9739    1.0000 </r>
       <r>    4.9822    1.0000 </r>
       <r>    5.0123    1.0000 </r>
       <r>    5.0180    1.0000 </r>
       <r>    5.0334    1.0000 </r>
       <r>    5.0521    1.0000 </r>
       <r>    5.0645    1.0000 </r>
       <r>    5.0744    1.0000 </r>
       <r>    5.0857    1.0000 </r>
       <r>    5.1084    1.0000 </r>
       <r>    5.1188    1.0000 </r>
       <r>    5.1235    1.0000 </r>
       <r>    5.1415    1.0000 </r>
       <r>    5.1667    1.0000 </r>
       <r>    5.2122    1.0000 </r>
       <r>    5.2863    1.0000 </r>
       <r>    5.3103    1.0000 </r>
       <r>    5.3544    1.0000 </r>
       <r>    5.3658    1.0000 </r>
       <r>    5.3789    1.0000 </r>
       <r>    5.4001    1.0000 </r>
       <r>    5.4208    1.0000 </r>
       <r>    5.4748    1.0000 </r>
       <r>    5.5068    1.0000 </r>
       <r>    5.5289    1.0001 </r>
       <r>    5.6190    1.0047 </r>
       <r>    5.6857    1.0283 </r>
       <r>    5.6898    1.0301 </r>
       <r>    5.7335    1.0259 </r>
       <r>    5.7521    0.9953 </r>
       <r>    5.7999    0.7720 </r>
       <r>    5.8261    0.5681 </r>
       <r>    5.8378    0.4696 </r>
       <r>    5.8798    0.1552 </r>
       <r>    5.9088    0.0251 </r>
       <r>    5.9369   -0.0277 </r>
       <r>    5.9576   -0.0354 </r>
       <r>    5.9864   -0.0267 </r>
       <r>    5.9999   -0.0204 </r>
       <r>    6.0297   -0.0092 </r>
       <r>    6.0479   -0.0050 </r>
       <r>    6.0963   -0.0007 </r>
       <r>    6.1143   -0.0003 </r>
       <r>    6.1614   -0.0000 </r>
       <r>    6.1870   -0.0000 </r>
       <r>    6.2173   -0.0000 </r>
       <r>    6.3057   -0.0000 </r>
       <r>    6.4033   -0.0000 </r>
       <r>    6.4211   -0.0000 </r>
       <r>    6.5066   -0.0000 </r>
       <r>    6.5473   -0.0000 </r>
       <r>    6.5731   -0.0000 </r>
       <r>    6.6277   -0.0000 </r>
       <r>    6.7080   -0.0000 </r>
       <r>    6.7865   -0.0000 </r>
       <r>    6.8608   -0.0000 </r>
       <r>    6.9022   -0.0000 </r>
       <r>    6.9693   -0.0000 </r>
       <r>    6.9882   -0.0000 </r>
       <r>    7.0598   -0.0000 </r>
       <r>    7.1318   -0.0000 </r>
       <r>    7.1785   -0.0000 </r>
       <r>    7.3860   -0.0000 </r>
       <r>    7.4750   -0.0000 </r>
       <r>    7.5125   -0.0000 </r>
       <r>    7.5574   -0.0000 </r>
       <r>    7.6103   -0.0000 </r>
       <r>    7.6804   -0.0000 </r>
       <r>    7.7091   -0.0000 </r>
       <r>    7.7456   -0.0000 </r>
       <r>    7.7827   -0.0000 </r>
       <r>    7.8196   -0.0000 </r>
       <r>    7.8881   -0.0000 </r>
       <r>    7.9649   -0.0000 </r>
       <r>    7.9911   -0.0000 </r>
       <r>    8.0127   -0.0000 </r>
       <r>    8.0384   -0.0000 </r>
       <r>    8.0489   -0.0000 </r>
       <r>    8.0916   -0.0000 </r>
       <r>    8.1085   -0.0000 </r>
       <r>    8.1573   -0.0000 </r>
       <r>    8.1947   -0.0000 </r>
       <r>    8.2285   -0.0000 </r>
       <r>    8.2699   -0.0000 </r>
       <r>    8.3022   -0.0000 </r>
       <r>    8.3388   -0.0000 </r>
       <r>    8.6486    0.0000 </r>
       <r>    8.6564    0.0000 </r>
       <r>    8.7535    0.0000 </r>
       <r>    8.8084    0.0000 </r>
       <r>    8.9305    0.0000 </r>
       <r>    8.9568    0.0000 </r>
       <r>    9.1059    0.0000 </r>
       <r>    9.1511    0.0000 </r>
       <r>    9.2415    0.0000 </r>
       <r>    9.2680    0.0000 </r>
       <r>    9.2926    0.0000 </r>
       <r>    9.3473    0.0000 </r>
      </set>
      <set comment="kpoint 2">
       <r>  -28.4177    1.0000 </r>
       <r>  -28.4016    1.0000 </r>
       <r>  -28.3925    1.0000 </r>
       <r>  -28.3870    1.0000 </r>
       <r>  -28.3754    1.0000 </r>
       <r>  -28.3660    1.0000 </r>
       <r>  -28.3318    1.0000 </r>
       <r>  -28.3149    1.0000 </r>
       <r>  -28.3062    1.0000 </r>
       <r>  -28.3015    1.0000 </r>
       <r>  -28.2956    1.0000 </r>
       <r>  -28.2882    1.0000 </r>
       <r>  -28.2830    1.0000 </r>
       <r>  -28.2808    1.0000 </r>
       <r>  -28.2695    1.0000 </r>
       <r>  -28.2636    1.0000 </r>
       <r>  -28.2536    1.0000 </r>
       <r>  -28.2421    1.0000 </r>
       <r>  -28.2378    1.0000 </r>
       <r>  -28.2235    1.0000 </r>
       <r>  -28.2151    1.0000 </r>
       <r>  -28.1998    1.0000 </r>
       <r>  -28.1895    1.0000 </r>
       <r>  -28.1807    1.0000 </r>
       <r>  -28.1725    1.0000 </r>
       <r>  -28.1637    1.0000 </r>
       <r>  -28.1563    1.0000 </r>
       <r>  -28.1539    1.0000 </r>
       <r>  -28.1471    1.0000 </r>
       <r>  -28.1410    1.0000 </r>
       <r>  -28.1366    1.0000 </r>
       <r>  -28.1339    1.0000 </r>
       <r>  -28.1245    1.0000 </r>
       <r>  -28.1175    1.0000 </r>
       <r>  -28.1114    1.0000 </r>
       <r>  -28.1052    1.0000 </r>
       <r>  -28.1030    1.0000 </r>
       <r>  -28.0934    1.0000 </r>
       <r>  -28.0793    1.0000 </r>
       <r>  -28.0711    1.0000 </r>
       <r>  -28.0613    1.0000 </r>
       <r>  -28.0491    1.0000 </r>
       <r>  -28.0280    1.0000 </r>
       <r>  -28.0026    1.0000 </r>
       <r>  -27.9963    1.0000 </r>
       <r>  -27.9920    1.0000 </r>
       <r>  -27.9855    1.0000 </r>
       <r>  -27.9807    1.0000 </r>
       <r>  -27.9658    1.0000 </r>
       <r>  -27.9552    1.0000 </r>
       <r>  -27.9462    1.0000 </r>
       <r>  -27.9391    1.0000 </r>
       <r>  -27.9294    1.0000 </r>
       <r>  -27.9209    1.0000 </r>
       <r>  -27.9102    1.0000 </r>
       <r>  -27.9063    1.0000 </r>
       <r>  -27.8955    1.0000 </r>
       <r>  -27.8907    1.0000 </r>
       <r>  -27.8535    1.0000 </r>
       <r>  -27.8431    1.0000 </r>
       <r>  -27.8035    1.0000 </r>
       <r>  -27.7867    1.0000 </r>
       <r>  -27.7777    1.0000 </r>
       <r>  -27.7731    1.0000 </r>
       <r>  -27.7677    1.0000 </r>
       <r>  -27.7582    1.0000 </r>
       <r>  -27.7501    1.0000 </r>
       <r>  -27.7460    1.0000 </r>
       <r>  -27.7388    1.0000 </r>
       <r>  -27.7306    1.0000 </r>
       <r>  -27.7233    1.0000 </r>
       <r>  -27.7154    1.0000 </r>
       <r>  -27.6984    1.0000 </r>
       <r>  -27.6887    1.0000 </r>
       <r>  -27.6831    1.0000 </r>
       <r>  -27.6786    1.0000 </r>
       <r>  -27.6725    1.0000 </r>
       <r>  -27.6623    1.0000 </r>
       <r>  -27.6568    1.0000 </r>
       <r>  -27.6525    1.0000 </r>
       <r>  -27.6448    1.0000 </r>
       <r>  -27.6304    1.0000 </r>
       <r>  -27.6241    1.0000 </r>
       <r>  -27.6141    1.0000 </r>
       <r>  -27.6062    1.0000 </r>
       <r>  -27.5960    1.0000 </r>
       <r>  -27.5877    1.0000 </r>
       <r>  -27.5809    1.0000 </r>
       <r>  -27.5654    1.0000 </r>
       <r>  -27.5513    1.0000 </r>
       <r>  -27.5406    1.0000 </r>
       <r>  -27.5298    1.0000 </r>
       <r>  -27.5246    1.0000 </r>
       <r>  -27.5132    1.0000 </r>
       <r>  -27.5089    1.0000 </r>
       <r>  -27.5029    1.0000 </r>
       <r>  -27.4964    1.0000 </r>
       <r>  -27.4892    1.0000 </r>
       <r>  -27.4804    1.0000 </r>
       <r>  -27.4752    1.0000 </r>
       <r>  -27.4618    1.0000 </r>
       <r>  -27.4589    1.0000 </r>
       <r>  -27.4488    1.0000 </r>
       <r>  -27.4482    1.0000 </r>
       <r>  -27.4377    1.0000 </r>
       <r>  -27.4279    1.0000 </r>
       <r>  -27.4227    1.0000 </r>
       <r>  -27.4165    1.0000 </r>
       <r>  -27.4036    1.0000 </r>
       <r>  -27.3967    1.0000 </r>
       <r>  -27.3944    1.0000 </r>
       <r>  -27.3914    1.0000 </r>
       <r>  -27.3806    1.0000 </r>
       <r>  -27.3723    1.0000 </r>
       <r>  -27.3699    1.0000 </r>
       <r>  -27.3646    1.0000 </r>
       <r>  -27.3598    1.0000 </r>
       <r>  -27.3562    1.0000 </r>
       <r>  -27.3461    1.0000 </r>
       <r>  -27.3424    1.0000 </r>
       <r>  -27.3360    1.0000 </r>
       <r>  -27.3311    1.0000 </r>
       <r>  -27.3239    1.0000 </r>
       <r>  -27.3196    1.0000 </r>
       <r>  -27.3115    1.0000 </r>
       <r>  -27.3007    1.0000 </r>
       <r>  -27.2962    1.0000 </r>
       <r>  -27.2917    1.0000 </r>
       <r>  -27.2783    1.0000 </r>
       <r>  -27.2733    1.0000 </r>
       <r>  -27.2721    1.0000 </r>
       <r>  -27.2676    1.0000 </r>
       <r>  -27.2631    1.0000 </r>
       <r>  -27.2605    1.0000 </r>
       <r>  -27.2530    1.0000 </r>
       <r>  -27.2464    1.0000 </r>
       <r>  -27.2434    1.0000 </r>
       <r>  -27.2375    1.0000 </r>
       <r>  -27.2333    1.0000 </r>
       <r>  -27.2296    1.0000 </r>
       <r>  -27.2251    1.0000 </r>
       <r>  -27.2153    1.0000 </r>
       <r>  -27.2043    1.0000 </r>
       <r>  -27.2006    1.0000 </r>
       <r>  -27.1854    1.0000 </r>
       <r>  -27.1774    1.0000 </r>
       <r>  -27.1743    1.0000 </r>
       <r>  -27.1665    1.0000 </r>
       <r>  -27.1556    1.0000 </r>
       <r>  -27.1497    1.0000 </r>
       <r>  -27.1262    1.0000 </r>
       <r>  -27.1202    1.0000 </r>
       <r>  -27.1179    1.0000 </r>
       <r>  -27.1115    1.0000 </r>
       <r>  -27.1022    1.0000 </r>
       <r>  -27.0958    1.0000 </r>
       <r>  -27.0820    1.0000 </r>
       <r>  -27.0671    1.0000 </r>
       <r>  -27.0624    1.0000 </r>
       <r>  -27.0576    1.0000 </r>
       <r>  -27.0486    1.0000 </r>
       <r>  -27.0283    1.0000 </r>
       <r>   -2.0889    1.0000 </r>
       <r>   -0.8679    1.0000 </r>
       <r>    0.0120    1.0000 </r>
       <r>    0.0650    1.0000 </r>
       <r>    0.2861    1.0000 </r>
       <r>    0.3152    1.0000 </r>
       <r>    0.5733    1.0000 </r>
       <r>    0.6322    1.0000 </r>
       <r>    0.8043    1.0000 </r>
       <r>    0.8218    1.0000 </r>
       <r>    1.0586    1.0000 </r>
       <r>    1.0649    1.0000 </r>
       <r>    1.1105    1.0000 </r>
       <r>    1.1855    1.0000 </r>
       <r>    1.2236    1.0000 </r>
       <r>    1.2519    1.0000 </r>
       <r>    1.2641    1.0000 </r>
       <r>    1.3128    1.0000 </r>
       <r>    1.3238    1.0000 </r>
       <r>    1.7827    1.0000 </r>
       <r>    1.8245    1.0000 </r>
       <r>    1.8512    1.0000 </r>
       <r>    1.8860    1.0000 </r>
       <r>    1.8955    1.0000 </r>
       <r>    1.9499    1.0000 </r>
       <r>    2.2260    1.0000 </r>
       <r>    2.2488    1.0000 </r>
       <r>    2.2834    1.0000 </r>
       <r>    2.3122    1.0000 </r>
       <r>    2.4002    1.0000 </r>
       <r>    2.4174    1.0000 </r>
       <r>    2.4435    1.0000 </r>
       <r>    2.4549    1.0000 </r>
       <r>    2.4818    1.0000 </r>
       <r>    2.5263    1.0000 </r>
       <r>    2.5464    1.0000 </r>
       <r>    2.6107    1.0000 </r>
       <r>    2.6369    1.0000 </r>
       <r>    2.6727    1.0000 </r>
       <r>    2.7351    1.0000 </r>
       <r>    2.7512    1.0000 </r>
       <r>    2.7606    1.0000 </r>
       <r>    3.0434    1.0000 </r>
       <r>    3.0586    1.0000 </r>
       <r>    3.0722    1.0000 </r>
       <r>    3.0925    1.0000 </r>
       <r>    3.1068    1.0000 </r>
       <r>    3.1418    1.0000 </r>
       <r>    3.1570    1.0000 </r>
       <r>    3.1656    1.0000 </r>
       <r>    3.1845    1.0000 </r>
       <r>    3.2003    1.0000 </r>
       <r>    3.2122    1.0000 </r>
       <r>    3.2281    1.0000 </r>
       <r>    3.2591    1.0000 </r>
       <r>    3.2811    1.0000 </r>
       <r>    3.3287    1.0000 </r>
       <r>    3.3525    1.0000 </r>
       <r>    3.3782    1.0000 </r>
       <r>    3.4043    1.0000 </r>
       <r>    3.8196    1.0000 </r>
       <r>    4.0320    1.0000 </r>
       <r>    4.0614    1.0000 </r>
       <r>    4.0704    1.0000 </r>
       <r>    4.1204    1.0000 </r>
       <r>    4.1911    1.0000 </r>
       <r>    4.2111    1.0000 </r>
       <r>    4.2457    1.0000 </r>
       <r>    4.2562    1.0000 </r>
       <r>    4.2653    1.0000 </r>
       <r>    4.2831    1.0000 </r>
       <r>    4.2974    1.0000 </r>
       <r>    4.3114    1.0000 </r>
       <r>    4.3359    1.0000 </r>
       <r>    4.3610    1.0000 </r>
       <r>    4.3686    1.0000 </r>
       <r>    4.3745    1.0000 </r>
       <r>    4.4091    1.0000 </r>
       <r>    4.4253    1.0000 </r>
       <r>    4.4477    1.0000 </r>
       <r>    4.4715    1.0000 </r>
       <r>    4.4810    1.0000 </r>
       <r>    4.5006    1.0000 </r>
       <r>    4.5148    1.0000 </r>
       <r>    4.5366    1.0000 </r>
       <r>    4.5421    1.0000 </r>
       <r>    4.5628    1.0000 </r>
       <r>    4.5832    1.0000 </r>
       <r>    4.5915    1.0000 </r>
       <r>    4.6079    1.0000 </r>
       <r>    4.6294    1.0000 </r>
       <r>    4.6518    1.0000 </r>
       <r>    4.6706    1.0000 </r>
       <r>    4.6798    1.0000 </r>
       <r>    4.7037    1.0000 </r>
       <r>    4.7267    1.0000 </r>
       <r>    4.7538    1.0000 </r>
       <r>    4.7740    1.0000 </r>
       <r>    4.7923    1.0000 </r>
       <r>    4.8505    1.0000 </r>
       <r>    4.8699    1.0000 </r>
       <r>    4.9186    1.0000 </r>
       <r>    4.9501    1.0000 </r>
       <r>    4.9712    1.0000 </r>
       <r>    5.0408    1.0000 </r>
       <r>    5.0526    1.0000 </r>
       <r>    5.1053    1.0000 </r>
       <r>    5.1272    1.0000 </r>
       <r>    5.1421    1.0000 </r>
       <r>    5.1611    1.0000 </r>
       <r>    5.1848    1.0000 </r>
       <r>    5.2011    1.0000 </r>
       <r>    5.2422    1.0000 </r>
       <r>    5.2562    1.0000 </r>
       <r>    5.2779    1.0000 </r>
       <r>    5.3065    1.0000 </r>
       <r>    5.3189    1.0000 </r>
       <r>    5.3339    1.0000 </r>
       <r>    5.3528    1.0000 </r>
       <r>    5.3964    1.0000 </r>
       <r>    5.4220    1.0000 </r>
       <r>    5.4547    1.0000 </r>
       <r>    5.4854    1.0000 </r>
       <r>    5.5174    1.0000 </r>
       <r>    5.5572    1.0003 </r>
       <r>    5.6336    1.0078 </r>
       <r>    5.6570    1.0155 </r>
       <r>    5.6911    1.0306 </r>
       <r>    5.7102    1.0354 </r>
       <r>    5.7438    1.0121 </r>
       <r>    5.7536    0.9916 </r>
       <r>    5.7715    0.9316 </r>
       <r>    5.7931    0.8173 </r>
       <r>    5.8171    0.6424 </r>
       <r>    5.8407    0.4453 </r>
       <r>    5.8592    0.2959 </r>
       <r>    5.9296   -0.0197 </r>
       <r>    5.9519   -0.0351 </r>
       <r>    5.9759   -0.0311 </r>
       <r>    6.0106   -0.0158 </r>
       <r>    6.0390   -0.0068 </r>
       <r>    6.0621   -0.0029 </r>
       <r>    6.0799   -0.0014 </r>
       <r>    6.1208   -0.0002 </r>
       <r>    6.1617   -0.0000 </r>
       <r>    6.1860   -0.0000 </r>
       <r>    6.2876   -0.0000 </r>
       <r>    6.3140   -0.0000 </r>
       <r>    6.3618   -0.0000 </r>
       <r>    6.4020   -0.0000 </r>
       <r>    6.4481   -0.0000 </r>
       <r>    6.5568   -0.0000 </r>
       <r>    6.5931   -0.0000 </r>
       <r>    6.6204   -0.0000 </r>
       <r>    6.9159   -0.0000 </r>
       <r>    7.0708   -0.0000 </r>
       <r>    7.0796   -0.0000 </r>
       <r>    7.1839   -0.0000 </r>
       <r>    7.2208   -0.0000 </r>
       <r>    7.2768   -0.0000 </r>
       <r>    7.3880   -0.0000 </r>
       <r>    7.4129   -0.0000 </r>
       <r>    7.4548   -0.0000 </r>
       <r>    7.5166   -0.0000 </r>
       <r>    7.5497   -0.0000 </r>
       <r>    7.6004   -0.0000 </r>
       <r>    7.6460   -0.0000 </r>
       <r>    7.7235   -0.0000 </r>
       <r>    7.7839   -0.0000 </r>
       <r>    7.8637   -0.0000 </r>
       <r>    7.9127   -0.0000 </r>
       <r>    7.9665   -0.0000 </r>
       <r>    8.0255   -0.0000 </r>
       <r>    8.0499   -0.0000 </r>
       <r>    8.0737   -0.0000 </r>
       <r>    8.0888   -0.0000 </r>
       <r>    8.1494   -0.0000 </r>
       <r>    8.1608   -0.0000 </r>
       <r>    8.2113   -0.0000 </r>
       <r>    8.2399   -0.0000 </r>
       <r>    8.2796   -0.0000 </r>
       <r>    8.3155   -0.0000 </r>
       <r>    8.3632   -0.0000 </r>
       <r>    8.3925   -0.0000 </r>
       <r>    8.4192   -0.0000 </r>
       <r>    8.4586   -0.0000 </r>
       <r>    8.5562   -0.0000 </r>
       <r>    8.6616    0.0000 </r>
       <r>    8.7424    0.0000 </r>
       <r>    8.7776    0.0000 </r>
       <r>    8.8315    0.0000 </r>
       <r>    8.9104    0.0000 </r>
       <r>    9.0268    0.0000 </r>
       <r>    9.1405    0.0000 </r>
       <r>    9.1826    0.0000 </r>
       <r>    9.2770    0.0000 </r>
       <r>    9.3096    0.0000 </r>
       <r>    9.3568    0.0000 </r>
      </set>
      <set comment="kpoint 3">
       <r>  -28.3960    1.0000 </r>
       <r>  -28.3758    1.0000 </r>
       <r>  -28.3746    1.0000 </r>
       <r>  -28.3681    1.0000 </r>
       <r>  -28.3561    1.0000 </r>
       <r>  -28.3524    1.0000 </r>
       <r>  -28.3482    1.0000 </r>
       <r>  -28.3395    1.0000 </r>
       <r>  -28.3313    1.0000 </r>
       <r>  -28.3226    1.0000 </r>
       <r>  -28.3161    1.0000 </r>
       <r>  -28.3066    1.0000 </r>
       <r>  -28.2655    1.0000 </r>
       <r>  -28.2538    1.0000 </r>
       <r>  -28.2508    1.0000 </r>
       <r>  -28.2458    1.0000 </r>
       <r>  -28.2436    1.0000 </r>
       <r>  -28.2380    1.0000 </r>
       <r>  -28.2346    1.0000 </r>
       <r>  -28.2281    1.0000 </r>
       <r>  -28.2221    1.0000 </r>
       <r>  -28.2166    1.0000 </r>
       <r>  -28.2127    1.0000 </r>
       <r>  -28.2120    1.0000 </r>
       <r>  -28.1973    1.0000 </r>
       <r>  -28.1958    1.0000 </r>
       <r>  -28.1854    1.0000 </r>
       <r>  -28.1783    1.0000 </r>
       <r>  -28.1727    1.0000 </r>
       <r>  -28.1688    1.0000 </r>
       <r>  -28.1663    1.0000 </r>
       <r>  -28.1577    1.0000 </r>
       <r>  -28.1481    1.0000 </r>
       <r>  -28.1393    1.0000 </r>
       <r>  -28.1310    1.0000 </r>
       <r>  -28.1241    1.0000 </r>
       <r>  -28.1165    1.0000 </r>
       <r>  -28.1149    1.0000 </r>
       <r>  -28.1092    1.0000 </r>
       <r>  -28.1006    1.0000 </r>
       <r>  -28.0843    1.0000 </r>
       <r>  -28.0781    1.0000 </r>
       <r>  -28.0495    1.0000 </r>
       <r>  -28.0187    1.0000 </r>
       <r>  -27.9076    1.0000 </r>
       <r>  -27.8856    1.0000 </r>
       <r>  -27.8809    1.0000 </r>
       <r>  -27.8791    1.0000 </r>
       <r>  -27.8739    1.0000 </r>
       <r>  -27.8713    1.0000 </r>
       <r>  -27.8640    1.0000 </r>
       <r>  -27.8544    1.0000 </r>
       <r>  -27.8505    1.0000 </r>
       <r>  -27.8468    1.0000 </r>
       <r>  -27.8435    1.0000 </r>
       <r>  -27.8398    1.0000 </r>
       <r>  -27.8332    1.0000 </r>
       <r>  -27.8249    1.0000 </r>
       <r>  -27.8205    1.0000 </r>
       <r>  -27.8148    1.0000 </r>
       <r>  -27.8142    1.0000 </r>
       <r>  -27.8100    1.0000 </r>
       <r>  -27.8051    1.0000 </r>
       <r>  -27.7975    1.0000 </r>
       <r>  -27.7922    1.0000 </r>
       <r>  -27.7900    1.0000 </r>
       <r>  -27.7846    1.0000 </r>
       <r>  -27.7739    1.0000 </r>
       <r>  -27.7674    1.0000 </r>
       <r>  -27.7592    1.0000 </r>
       <r>  -27.7485    1.0000 </r>
       <r>  -27.7456    1.0000 </r>
       <r>  -27.7346    1.0000 </r>
       <r>  -27.7263    1.0000 </r>
       <r>  -27.7210    1.0000 </r>
       <r>  -27.7070    1.0000 </r>
       <r>  -27.7023    1.0000 </r>
       <r>  -27.6960    1.0000 </r>
       <r>  -27.6919    1.0000 </r>
       <r>  -27.6707    1.0000 </r>
       <r>  -27.6450    1.0000 </r>
       <r>  -27.6378    1.0000 </r>
       <r>  -27.6337    1.0000 </r>
       <r>  -27.6237    1.0000 </r>
       <r>  -27.6196    1.0000 </r>
       <r>  -27.6124    1.0000 </r>
       <r>  -27.6059    1.0000 </r>
       <r>  -27.5955    1.0000 </r>
       <r>  -27.5889    1.0000 </r>
       <r>  -27.5856    1.0000 </r>
       <r>  -27.5805    1.0000 </r>
       <r>  -27.5779    1.0000 </r>
       <r>  -27.5652    1.0000 </r>
       <r>  -27.5614    1.0000 </r>
       <r>  -27.5468    1.0000 </r>
       <r>  -27.5300    1.0000 </r>
       <r>  -27.5155    1.0000 </r>
       <r>  -27.5113    1.0000 </r>
       <r>  -27.5040    1.0000 </r>
       <r>  -27.4886    1.0000 </r>
       <r>  -27.4780    1.0000 </r>
       <r>  -27.4742    1.0000 </r>
       <r>  -27.4682    1.0000 </r>
       <r>  -27.4517    1.0000 </r>
       <r>  -27.4478    1.0000 </r>
       <r>  -27.4327    1.0000 </r>
       <r>  -27.4229    1.0000 </r>
       <r>  -27.4183    1.0000 </r>
       <r>  -27.4046    1.0000 </r>
       <r>  -27.3960    1.0000 </r>
       <r>  -27.3953    1.0000 </r>
       <r>  -27.3877    1.0000 </r>
       <r>  -27.3854    1.0000 </r>
       <r>  -27.3742    1.0000 </r>
       <r>  -27.3707    1.0000 </r>
       <r>  -27.3661    1.0000 </r>
       <r>  -27.3577    1.0000 </r>
       <r>  -27.3546    1.0000 </r>
       <r>  -27.3393    1.0000 </r>
       <r>  -27.3300    1.0000 </r>
       <r>  -27.3223    1.0000 </r>
       <r>  -27.3175    1.0000 </r>
       <r>  -27.2984    1.0000 </r>
       <r>  -27.2907    1.0000 </r>
       <r>  -27.2879    1.0000 </r>
       <r>  -27.2752    1.0000 </r>
       <r>  -27.2694    1.0000 </r>
       <r>  -27.2658    1.0000 </r>
       <r>  -27.2591    1.0000 </r>
       <r>  -27.2563    1.0000 </r>
       <r>  -27.2461    1.0000 </r>
       <r>  -27.2411    1.0000 </r>
       <r>  -27.2364    1.0000 </r>
       <r>  -27.2336    1.0000 </r>
       <r>  -27.2286    1.0000 </r>
       <r>  -27.2197    1.0000 </r>
       <r>  -27.2172    1.0000 </r>
       <r>  -27.2114    1.0000 </r>
       <r>  -27.2076    1.0000 </r>
       <r>  -27.1990    1.0000 </r>
       <r>  -27.1947    1.0000 </r>
       <r>  -27.1906    1.0000 </r>
       <r>  -27.1832    1.0000 </r>
       <r>  -27.1821    1.0000 </r>
       <r>  -27.1764    1.0000 </r>
       <r>  -27.1680    1.0000 </r>
       <r>  -27.1586    1.0000 </r>
       <r>  -27.1577    1.0000 </r>
       <r>  -27.1537    1.0000 </r>
       <r>  -27.1479    1.0000 </r>
       <r>  -27.1415    1.0000 </r>
       <r>  -27.1411    1.0000 </r>
       <r>  -27.1321    1.0000 </r>
       <r>  -27.1275    1.0000 </r>
       <r>  -27.1213    1.0000 </r>
       <r>  -27.1168    1.0000 </r>
       <r>  -27.1110    1.0000 </r>
       <r>  -27.1034    1.0000 </r>
       <r>  -27.0867    1.0000 </r>
       <r>  -27.0783    1.0000 </r>
       <r>  -27.0762    1.0000 </r>
       <r>  -27.0564    1.0000 </r>
       <r>   -1.6308    1.0000 </r>
       <r>   -1.5942    1.0000 </r>
       <r>    0.2496    1.0000 </r>
       <r>    0.2564    1.0000 </r>
       <r>    0.3004    1.0000 </r>
       <r>    0.3251    1.0000 </r>
       <r>    0.4980    1.0000 </r>
       <r>    0.5318    1.0000 </r>
       <r>    0.5425    1.0000 </r>
       <r>    0.5528    1.0000 </r>
       <r>    1.4621    1.0000 </r>
       <r>    1.4865    1.0000 </r>
       <r>    1.5038    1.0000 </r>
       <r>    1.5121    1.0000 </r>
       <r>    1.5153    1.0000 </r>
       <r>    1.5244    1.0000 </r>
       <r>    1.5476    1.0000 </r>
       <r>    1.5624    1.0000 </r>
       <r>    1.5700    1.0000 </r>
       <r>    1.5809    1.0000 </r>
       <r>    1.5930    1.0000 </r>
       <r>    1.5969    1.0000 </r>
       <r>    1.6982    1.0000 </r>
       <r>    1.7108    1.0000 </r>
       <r>    1.7409    1.0000 </r>
       <r>    1.7610    1.0000 </r>
       <r>    2.0452    1.0000 </r>
       <r>    2.0565    1.0000 </r>
       <r>    2.0934    1.0000 </r>
       <r>    2.1198    1.0000 </r>
       <r>    2.2306    1.0000 </r>
       <r>    2.2732    1.0000 </r>
       <r>    2.6374    1.0000 </r>
       <r>    2.6493    1.0000 </r>
       <r>    2.6802    1.0000 </r>
       <r>    2.6953    1.0000 </r>
       <r>    2.7148    1.0000 </r>
       <r>    2.7315    1.0000 </r>
       <r>    2.7392    1.0000 </r>
       <r>    2.7619    1.0000 </r>
       <r>    2.8070    1.0000 </r>
       <r>    2.8144    1.0000 </r>
       <r>    2.8163    1.0000 </r>
       <r>    2.8710    1.0000 </r>
       <r>    2.8869    1.0000 </r>
       <r>    2.9234    1.0000 </r>
       <r>    2.9447    1.0000 </r>
       <r>    2.9828    1.0000 </r>
       <r>    3.1039    1.0000 </r>
       <r>    3.1192    1.0000 </r>
       <r>    3.1404    1.0000 </r>
       <r>    3.1663    1.0000 </r>
       <r>    3.1762    1.0000 </r>
       <r>    3.2039    1.0000 </r>
       <r>    3.2311    1.0000 </r>
       <r>    3.2511    1.0000 </r>
       <r>    3.4948    1.0000 </r>
       <r>    3.5526    1.0000 </r>
       <r>    3.6019    1.0000 </r>
       <r>    3.6437    1.0000 </r>
       <r>    3.7653    1.0000 </r>
       <r>    3.8233    1.0000 </r>
       <r>    3.8382    1.0000 </r>
       <r>    3.8644    1.0000 </r>
       <r>    4.0859    1.0000 </r>
[...]
       <r>    8.5914    0.0000 </r>
       <r>    8.6241    0.0000 </r>
       <r>    8.6491    0.0000 </r>
       <r>    8.6691    0.0000 </r>
       <r>    8.6914    0.0000 </r>
       <r>    8.7232    0.0000 </r>
       <r>    8.7307    0.0000 </r>
       <r>    8.7625    0.0000 </r>
       <r>    8.7761    0.0000 </r>
       <r>    8.8316    0.0000 </r>
       <r>    8.8486    0.0000 </r>
       <r>    8.8842    0.0000 </r>
       <r>    8.8911    0.0000 </r>
       <r>    8.9346    0.0000 </r>
       <r>    9.1138    0.0000 </r>
       <r>    9.1700    0.0000 </r>
       <r>    9.2577    0.0000 </r>
       <r>    9.2974    0.0000 </r>
      </set>
     </set>
    </set>
   </array>
  </eigenvalues>
  <separator name="orbital magnetization" >
   <v name="MAGDIPOLOUT">      0.00000000      0.00000000      0.00000000</v>
  </separator>
  <dos>
   <i name="efermi">      5.83420464 </i>
   <total>
    <array>
     <dimension dim="1">gridpoints</dimension>
     <dimension dim="2">spin</dimension>
     <field>energy</field>
     <field>total</field>
     <field>integrated</field>
     <set>
      <set comment="spin 1">
       <r>   -30.4017     0.0000     0.0000 </r>
       <r>   -30.2624     0.0000     0.0000 </r>
       <r>   -30.1230     0.0000     0.0000 </r>
       <r>   -29.9837     0.0000     0.0000 </r>
       <r>   -29.8444     0.0000     0.0000 </r>
       <r>   -29.7050     0.0000     0.0000 </r>
       <r>   -29.5657     0.0000     0.0000 </r>
       <r>   -29.4264    -0.0000    -0.0000 </r>
       <r>   -29.2871    -0.0000    -0.0000 </r>
       <r>   -29.1477    -0.0000    -0.0000 </r>
       <r>   -29.0084    -0.0000    -0.0000 </r>
       <r>   -28.8691    -0.0000    -0.0000 </r>
       <r>   -28.7297    -0.0067    -0.0009 </r>
       <r>   -28.5904    -0.9619    -0.1350 </r>
       <r>   -28.4511     8.7811     1.0885 </r>
       <r>   -28.3117   121.3988    18.0032 </r>
       <r>   -28.1724   258.2843    53.9903 </r>
       <r>   -28.0331   213.9661    83.8025 </r>
       <r>   -27.8937   158.3368   105.8638 </r>
       <r>   -27.7544   194.0152   132.8962 </r>
       <r>   -27.6151   243.7704   166.8610 </r>
       <r>   -27.4757   267.4220   204.1213 </r>
       <r>   -27.3364   245.5906   238.3398 </r>
       <r>   -27.1971   319.8264   282.9016 </r>
       <r>   -27.0577   260.3047   319.1702 </r>
       <r>   -26.9184    37.7297   324.4271 </r>
       <r>   -26.7791    -3.0413   324.0034 </r>
       <r>   -26.6398    -0.0243   324.0000 </r>
       <r>   -26.5004    -0.0000   324.0000 </r>
       <r>   -26.3611    -0.0000   324.0000 </r>
       <r>   -26.2218     0.0000   324.0000 </r>
       <r>   -26.0824     0.0000   324.0000 </r>
       <r>   -25.9431     0.0000   324.0000 </r>
       <r>   -25.8038     0.0000   324.0000 </r>
       <r>   -25.6644     0.0000   324.0000 </r>
       <r>   -25.5251     0.0000   324.0000 </r>
       <r>   -25.3858     0.0000   324.0000 </r>
       <r>   -25.2464     0.0000   324.0000 </r>
       <r>   -25.1071     0.0000   324.0000 </r>
       <r>   -24.9678     0.0000   324.0000 </r>
       <r>   -24.8284     0.0000   324.0000 </r>
       <r>   -24.6891     0.0000   324.0000 </r>
       <r>   -24.5498     0.0000   324.0000 </r>
       <r>   -24.4105     0.0000   324.0000 </r>
       <r>   -24.2711     0.0000   324.0000 </r>
       <r>   -24.1318     0.0000   324.0000 </r>
       <r>   -23.9925     0.0000   324.0000 </r>
       <r>   -23.8531     0.0000   324.0000 </r>
       <r>   -23.7138     0.0000   324.0000 </r>
       <r>   -23.5745     0.0000   324.0000 </r>
       <r>   -23.4351     0.0000   324.0000 </r>
       <r>   -23.2958     0.0000   324.0000 </r>
       <r>   -23.1565     0.0000   324.0000 </r>
       <r>   -23.0171     0.0000   324.0000 </r>
       <r>   -22.8778     0.0000   324.0000 </r>
       <r>   -22.7385     0.0000   324.0000 </r>
       <r>   -22.5991     0.0000   324.0000 </r>
       <r>   -22.4598     0.0000   324.0000 </r>
       <r>   -22.3205     0.0000   324.0000 </r>
       <r>   -22.1812     0.0000   324.0000 </r>
       <r>   -22.0418     0.0000   324.0000 </r>
       <r>   -21.9025     0.0000   324.0000 </r>
       <r>   -21.7632     0.0000   324.0000 </r>
       <r>   -21.6238     0.0000   324.0000 </r>
       <r>   -21.4845     0.0000   324.0000 </r>
       <r>   -21.3452     0.0000   324.0000 </r>
       <r>   -21.2058     0.0000   324.0000 </r>
       <r>   -21.0665     0.0000   324.0000 </r>
       <r>   -20.9272     0.0000   324.0000 </r>
       <r>   -20.7878     0.0000   324.0000 </r>
       <r>   -20.6485     0.0000   324.0000 </r>
       <r>   -20.5092     0.0000   324.0000 </r>
       <r>   -20.3698     0.0000   324.0000 </r>
       <r>   -20.2305     0.0000   324.0000 </r>
       <r>   -20.0912     0.0000   324.0000 </r>
       <r>   -19.9518     0.0000   324.0000 </r>
       <r>   -19.8125     0.0000   324.0000 </r>
       <r>   -19.6732     0.0000   324.0000 </r>
       <r>   -19.5339     0.0000   324.0000 </r>
       <r>   -19.3945     0.0000   324.0000 </r>
       <r>   -19.2552     0.0000   324.0000 </r>
       <r>   -19.1159     0.0000   324.0000 </r>
       <r>   -18.9765     0.0000   324.0000 </r>
       <r>   -18.8372     0.0000   324.0000 </r>
       <r>   -18.6979     0.0000   324.0000 </r>
       <r>   -18.5585     0.0000   324.0000 </r>
       <r>   -18.4192     0.0000   324.0000 </r>
       <r>   -18.2799     0.0000   324.0000 </r>
       <r>   -18.1405     0.0000   324.0000 </r>
       <r>   -18.0012     0.0000   324.0000 </r>
       <r>   -17.8619     0.0000   324.0000 </r>
       <r>   -17.7225     0.0000   324.0000 </r>
       <r>   -17.5832     0.0000   324.0000 </r>
       <r>   -17.4439     0.0000   324.0000 </r>
       <r>   -17.3046     0.0000   324.0000 </r>
       <r>   -17.1652     0.0000   324.0000 </r>
       <r>   -17.0259     0.0000   324.0000 </r>
       <r>   -16.8866     0.0000   324.0000 </r>
       <r>   -16.7472     0.0000   324.0000 </r>
       <r>   -16.6079     0.0000   324.0000 </r>
       <r>   -16.4686     0.0000   324.0000 </r>
       <r>   -16.3292     0.0000   324.0000 </r>
       <r>   -16.1899     0.0000   324.0000 </r>
       <r>   -16.0506     0.0000   324.0000 </r>
       <r>   -15.9112     0.0000   324.0000 </r>
       <r>   -15.7719     0.0000   324.0000 </r>
       <r>   -15.6326     0.0000   324.0000 </r>
       <r>   -15.4932     0.0000   324.0000 </r>
       <r>   -15.3539     0.0000   324.0000 </r>
       <r>   -15.2146     0.0000   324.0000 </r>
       <r>   -15.0753     0.0000   324.0000 </r>
       <r>   -14.9359     0.0000   324.0000 </r>
       <r>   -14.7966     0.0000   324.0000 </r>
       <r>   -14.6573     0.0000   324.0000 </r>
       <r>   -14.5179     0.0000   324.0000 </r>
       <r>   -14.3786     0.0000   324.0000 </r>
       <r>   -14.2393     0.0000   324.0000 </r>
       <r>   -14.0999     0.0000   324.0000 </r>
       <r>   -13.9606     0.0000   324.0000 </r>
       <r>   -13.8213     0.0000   324.0000 </r>
       <r>   -13.6819     0.0000   324.0000 </r>
       <r>   -13.5426     0.0000   324.0000 </r>
       <r>   -13.4033     0.0000   324.0000 </r>
       <r>   -13.2639     0.0000   324.0000 </r>
       <r>   -13.1246     0.0000   324.0000 </r>
       <r>   -12.9853     0.0000   324.0000 </r>
       <r>   -12.8460     0.0000   324.0000 </r>
       <r>   -12.7066     0.0000   324.0000 </r>
       <r>   -12.5673     0.0000   324.0000 </r>
       <r>   -12.4280     0.0000   324.0000 </r>
       <r>   -12.2886     0.0000   324.0000 </r>
       <r>   -12.1493     0.0000   324.0000 </r>
       <r>   -12.0100     0.0000   324.0000 </r>
       <r>   -11.8706     0.0000   324.0000 </r>
       <r>   -11.7313     0.0000   324.0000 </r>
       <r>   -11.5920     0.0000   324.0000 </r>
       <r>   -11.4526     0.0000   324.0000 </r>
       <r>   -11.3133     0.0000   324.0000 </r>
       <r>   -11.1740     0.0000   324.0000 </r>
       <r>   -11.0346     0.0000   324.0000 </r>
       <r>   -10.8953     0.0000   324.0000 </r>
       <r>   -10.7560     0.0000   324.0000 </r>
       <r>   -10.6166     0.0000   324.0000 </r>
       <r>   -10.4773     0.0000   324.0000 </r>
       <r>   -10.3380     0.0000   324.0000 </r>
       <r>   -10.1987     0.0000   324.0000 </r>
       <r>   -10.0593     0.0000   324.0000 </r>
       <r>    -9.9200     0.0000   324.0000 </r>
       <r>    -9.7807     0.0000   324.0000 </r>
       <r>    -9.6413     0.0000   324.0000 </r>
       <r>    -9.5020     0.0000   324.0000 </r>
       <r>    -9.3627     0.0000   324.0000 </r>
       <r>    -9.2233     0.0000   324.0000 </r>
       <r>    -9.0840     0.0000   324.0000 </r>
       <r>    -8.9447     0.0000   324.0000 </r>
       <r>    -8.8053     0.0000   324.0000 </r>
       <r>    -8.6660     0.0000   324.0000 </r>
       <r>    -8.5267     0.0000   324.0000 </r>
       <r>    -8.3873     0.0000   324.0000 </r>
       <r>    -8.2480     0.0000   324.0000 </r>
       <r>    -8.1087     0.0000   324.0000 </r>
       <r>    -7.9694     0.0000   324.0000 </r>
       <r>    -7.8300     0.0000   324.0000 </r>
       <r>    -7.6907     0.0000   324.0000 </r>
       <r>    -7.5514     0.0000   324.0000 </r>
       <r>    -7.4120     0.0000   324.0000 </r>
       <r>    -7.2727     0.0000   324.0000 </r>
       <r>    -7.1334     0.0000   324.0000 </r>
       <r>    -6.9940     0.0000   324.0000 </r>
       <r>    -6.8547     0.0000   324.0000 </r>
       <r>    -6.7154     0.0000   324.0000 </r>
       <r>    -6.5760     0.0000   324.0000 </r>
       <r>    -6.4367     0.0000   324.0000 </r>
       <r>    -6.2974     0.0000   324.0000 </r>
       <r>    -6.1580     0.0000   324.0000 </r>
       <r>    -6.0187     0.0000   324.0000 </r>
       <r>    -5.8794     0.0000   324.0000 </r>
       <r>    -5.7401     0.0000   324.0000 </r>
       <r>    -5.6007     0.0000   324.0000 </r>
       <r>    -5.4614     0.0000   324.0000 </r>
       <r>    -5.3221     0.0000   324.0000 </r>
       <r>    -5.1827     0.0000   324.0000 </r>
       <r>    -5.0434     0.0000   324.0000 </r>
       <r>    -4.9041     0.0000   324.0000 </r>
       <r>    -4.7647     0.0000   324.0000 </r>
       <r>    -4.6254     0.0000   324.0000 </r>
       <r>    -4.4861     0.0000   324.0000 </r>
       <r>    -4.3467     0.0000   324.0000 </r>
       <r>    -4.2074     0.0000   324.0000 </r>
       <r>    -4.0681     0.0000   324.0000 </r>
       <r>    -3.9287     0.0000   324.0000 </r>
       <r>    -3.7894     0.0000   324.0000 </r>
       <r>    -3.6501     0.0000   324.0000 </r>
       <r>    -3.5107     0.0000   324.0000 </r>
       <r>    -3.3714     0.0000   324.0000 </r>
       <r>    -3.2321     0.0000   324.0000 </r>
       <r>    -3.0928    -0.0000   324.0000 </r>
       <r>    -2.9534    -0.0000   324.0000 </r>
       <r>    -2.8141    -0.0000   324.0000 </r>
       <r>    -2.6748    -0.0000   324.0000 </r>
       <r>    -2.5354    -0.0001   324.0000 </r>
       <r>    -2.3961    -0.0069   323.9990 </r>
       <r>    -2.2568     0.0850   324.0109 </r>
       <r>    -2.1174     0.4833   324.0782 </r>
       <r>    -1.9781     1.4136   324.2752 </r>
       <r>    -1.8388     2.4041   324.6101 </r>
       <r>    -1.6994     1.6401   324.8386 </r>
       <r>    -1.5601     1.2594   325.0141 </r>
       <r>    -1.4208     4.3703   325.6230 </r>
       <r>    -1.2814     5.1998   326.3475 </r>
       <r>    -1.1421     1.5184   326.5591 </r>
       <r>    -1.0028     1.8762   326.8205 </r>
       <r>    -0.8635     5.3743   327.5693 </r>
       <r>    -0.7241     5.5318   328.3401 </r>
       <r>    -0.5848     5.3363   329.0836 </r>
       <r>    -0.4455     4.6128   329.7263 </r>
       <r>    -0.3061     6.5449   330.6382 </r>
       <r>    -0.1668     7.1534   331.6349 </r>
       <r>    -0.0275     2.1612   331.9360 </r>
       <r>     0.1119     6.1972   332.7995 </r>
       <r>     0.2512    11.2277   334.3639 </r>
       <r>     0.3905     9.7262   335.7190 </r>
       <r>     0.5299     8.1578   336.8557 </r>
       <r>     0.6692    10.1289   338.2670 </r>
       <r>     0.8085    10.6802   339.7550 </r>
       <r>     0.9479    10.3441   341.1963 </r>
       <r>     1.0872     8.8465   342.4289 </r>
       <r>     1.2265    19.5880   345.1581 </r>
       <r>     1.3658    36.3957   350.2292 </r>
       <r>     1.5052    40.2980   355.8439 </r>
       <r>     1.6445    24.1455   359.2082 </r>
       <r>     1.7838    25.5029   362.7615 </r>
       <r>     1.9232    42.0953   368.6267 </r>
       <r>     2.0625    48.8247   375.4295 </r>
       <r>     2.2018    36.9692   380.5805 </r>
       <r>     2.3412    44.9523   386.8438 </r>
       <r>     2.4805    42.2397   392.7291 </r>
       <r>     2.6198    49.6750   399.6504 </r>
       <r>     2.7592    68.1065   409.1397 </r>
       <r>     2.8985    60.5955   417.5826 </r>
       <r>     3.0378    38.1704   422.9009 </r>
       <r>     3.1772    38.5076   428.2662 </r>
       <r>     3.3165    41.1909   434.0054 </r>
       <r>     3.4558    29.3113   438.0894 </r>
       <r>     3.5951    20.4329   440.9363 </r>
       <r>     3.7345    19.2596   443.6198 </r>
       <r>     3.8738    33.5624   448.2961 </r>
       <r>     4.0131    41.9684   454.1436 </r>
       <r>     4.1525    70.0756   463.9073 </r>
       <r>     4.2918    84.4536   475.6744 </r>
       <r>     4.4311    83.6195   487.3252 </r>
       <r>     4.5705    83.4729   498.9556 </r>
       <r>     4.7098    77.5283   509.7577 </r>
       <r>     4.8491    66.7094   519.0524 </r>
       <r>     4.9885    63.0140   527.8322 </r>
       <r>     5.1278    69.4540   537.5094 </r>
       <r>     5.2671    78.0093   548.3785 </r>
       <r>     5.4065    80.0911   559.5377 </r>
       <r>     5.5458    83.6334   571.1905 </r>
       <r>     5.6851    83.3574   582.8048 </r>
       <r>     5.8245    75.4193   593.3130 </r>
       <r>     5.9638    66.7101   602.6079 </r>
       <r>     6.1031    54.7871   610.2414 </r>
       <r>     6.2424    45.4121   616.5687 </r>
       <r>     6.3818    40.3542   622.1913 </r>
       <r>     6.5211    32.7010   626.7476 </r>
       <r>     6.6604    22.7900   629.9230 </r>
       <r>     6.7998    23.6324   633.2157 </r>
       <r>     6.9391    21.9670   636.2764 </r>
       <r>     7.0784    17.9507   638.7775 </r>
       <r>     7.2178    16.7662   641.1136 </r>
       <r>     7.3571    19.1369   643.7799 </r>
       <r>     7.4964    18.6976   646.3851 </r>
       <r>     7.6358    26.9844   650.1449 </r>
       <r>     7.7751    29.0508   654.1926 </r>
       <r>     7.9144    26.8374   657.9318 </r>
       <r>     8.0538    33.1264   662.5474 </r>
       <r>     8.1931    38.7533   667.9469 </r>
       <r>     8.3324    42.8065   673.9112 </r>
       <r>     8.4717    37.4230   679.1254 </r>
       <r>     8.6111    40.2898   684.7391 </r>
       <r>     8.7504    43.3387   690.7775 </r>
       <r>     8.8897    45.6223   697.1341 </r>
       <r>     9.0291    51.4983   704.3094 </r>
       <r>     9.1684    49.0657   711.1458 </r>
       <r>     9.3077    43.3855   717.1908 </r>
       <r>     9.4471    19.2306   719.8702 </r>
       <r>     9.5864     1.0499   720.0165 </r>
       <r>     9.7257    -0.1165   720.0003 </r>
       <r>     9.8651    -0.0020   720.0000 </r>
       <r>    10.0044    -0.0000   720.0000 </r>
       <r>    10.1437    -0.0000   720.0000 </r>
       <r>    10.2831     0.0000   720.0000 </r>
       <r>    10.4224     0.0000   720.0000 </r>
       <r>    10.5617     0.0000   720.0000 </r>
       <r>    10.7010     0.0000   720.0000 </r>
       <r>    10.8404     0.0000   720.0000 </r>
       <r>    10.9797     0.0000   720.0000 </r>
       <r>    11.1190     0.0000   720.0000 </r>
       <r>    11.2584     0.0000   720.0000 </r>
       <r>    11.3977     0.0000   720.0000 </r>
      </set>
     </set>
    </array>
   </total>
  </dos>
 </calculation>
 <structure name="finalpos" >
  <crystal>
   <varray name="basis" >
    <v>       9.78380760      -0.00000000      -0.00000000 </v>
    <v>       0.10643884      10.10515987      -0.00000000 </v>
    <v>       0.02278387      -0.40023586       9.46709378 </v>
   </varray>
   <i name="volume">    935.98259171 </i>
   <varray name="rec_basis" >
    <v>       0.10220970      -0.00107659      -0.00029150 </v>
    <v>       0.00000000       0.09895934       0.00418366 </v>
    <v>       0.00000000       0.00000000       0.10562904 </v>
   </varray>
  </crystal>
  <varray name="positions" >
   <v>       0.00368162       0.00524083       0.99559341 </v>
   <v>       0.00203294       0.99794354       0.33192893 </v>
   <v>       0.00646396       0.00097994       0.66812822 </v>
   <v>       0.99941350       0.33018067       0.99698813 </v>
   <v>       0.00454593       0.33767037       0.32592864 </v>
   <v>       0.99959559       0.32790996       0.66097656 </v>
   <v>       0.00046081       0.66101186       0.99959213 </v>
   <v>       0.99288050       0.66515247       0.33150493 </v>
   <v>       0.99894302       0.65956076       0.65938421 </v>
   <v>       0.34122558       0.00236868       0.99479160 </v>
   <v>       0.32931153       0.00101150       0.32603497 </v>
   <v>       0.34107143       0.99973731       0.67128678 </v>
   <v>       0.33108939       0.34133695       0.99572257 </v>
   <v>       0.33675240       0.33545201       0.33353512 </v>
   <v>       0.33229960       0.32846402       0.66340188 </v>
   <v>       0.32961573       0.67169096       0.00707105 </v>
   <v>       0.33401187       0.66984171       0.33069159 </v>
   <v>       0.32992321       0.66217137       0.67036307 </v>
   <v>       0.66496172       0.99796292       0.00593146 </v>
   <v>       0.66596713       0.99800117       0.33052767 </v>
   <v>       0.66550165       0.99284047       0.66991846 </v>
   <v>       0.66610464       0.33273830       0.00708637 </v>
   <v>       0.66500257       0.34119861       0.33330765 </v>
   <v>       0.66079565       0.33368037       0.65965650 </v>
   <v>       0.66616888       0.66242427       0.00917664 </v>
   <v>       0.66978511       0.66610447       0.34207958 </v>
   <v>       0.66246859       0.67210571       0.66173459 </v>
   <v>       0.16853700       0.16375452       0.15897348 </v>
   <v>       0.16236067       0.16643803       0.50269321 </v>
   <v>       0.16219877       0.16796584       0.82555412 </v>
   <v>       0.15940897       0.50516103       0.16658406 </v>
   <v>       0.16309649       0.49831377       0.49312378 </v>
   <v>       0.16704337       0.49822602       0.83099705 </v>
   <v>       0.17431954       0.83901208       0.16938984 </v>
   <v>       0.17510037       0.83403245       0.49809164 </v>
   <v>       0.16339631       0.82895550       0.83898611 </v>
   <v>       0.50553864       0.16741718       0.17154054 </v>
   <v>       0.50281186       0.16028934       0.50481463 </v>
   <v>       0.50429264       0.16358965       0.83220371 </v>
   <v>       0.49535858       0.50346402       0.16862702 </v>
   <v>       0.49479701       0.50499104       0.49934036 </v>
   <v>       0.49791901       0.50365857       0.82866492 </v>
   <v>       0.49709044       0.83752087       0.16038734 </v>
   <v>       0.49600595       0.84037642       0.49451501 </v>
   <v>       0.50835862       0.83615231       0.83356693 </v>
   <v>       0.82438433       0.16247975       0.16447195 </v>
   <v>       0.82920252       0.16421630       0.50572919 </v>
   <v>       0.83003218       0.15953324       0.82807710 </v>
   <v>       0.82743538       0.50217158       0.16553250 </v>
   <v>       0.83095514       0.50655741       0.50529982 </v>
   <v>       0.82399177       0.50090513       0.83742195 </v>
   <v>       0.83340542       0.83941056       0.16076367 </v>
   <v>       0.82595049       0.82782293       0.49600947 </v>
   <v>       0.83660397       0.83798421       0.83397447 </v>
  </varray>
 </structure>
</modeling>
