unknown system                          
           1
     9.783808   -0.000000   -0.000000
     0.106439   10.105160   -0.000000
     0.022784   -0.400236    9.467094
   Ta
    54
Direct configuration=     1
   0.00368162  0.00524083  0.99559341
   0.00203294  0.99794354  0.33192893
   0.00646396  0.00097994  0.66812822
   0.99941350  0.33018067  0.99698813
   0.00454593  0.33767037  0.32592864
   0.99959559  0.32790996  0.66097656
   0.00046081  0.66101186  0.99959213
   0.99288050  0.66515247  0.33150493
   0.99894302  0.65956076  0.65938421
   0.34122558  0.00236868  0.99479160
   0.32931153  0.00101150  0.32603497
   0.34107143  0.99973731  0.67128678
   0.33108939  0.34133695  0.99572257
   0.33675240  0.33545201  0.33353512
   0.33229960  0.32846402  0.66340188
   0.32961573  0.67169096  0.00707105
   0.33401187  0.66984171  0.33069159
   0.32992321  0.66217137  0.67036307
   0.66496172  0.99796292  0.00593146
   0.66596713  0.99800117  0.33052767
   0.66550165  0.99284047  0.66991846
   0.66610464  0.33273830  0.00708637
   0.66500257  0.34119861  0.33330765
   0.66079565  0.33368037  0.65965650
   0.66616888  0.66242427  0.00917664
   0.66978511  0.66610447  0.34207958
   0.66246859  0.67210571  0.66173459
   0.16853700  0.16375452  0.15897348
   0.16236067  0.16643803  0.50269321
   0.16219877  0.16796584  0.82555412
   0.15940897  0.50516103  0.16658406
   0.16309649  0.49831377  0.49312378
   0.16704337  0.49822602  0.83099705
   0.17431954  0.83901208  0.16938984
   0.17510037  0.83403245  0.49809164
   0.16339631  0.82895550  0.83898611
   0.50553864  0.16741718  0.17154054
   0.50281186  0.16028934  0.50481463
   0.50429264  0.16358965  0.83220371
   0.49535858  0.50346402  0.16862702
   0.49479701  0.50499104  0.49934036
   0.49791901  0.50365857  0.82866492
   0.49709044  0.83752087  0.16038734
   0.49600595  0.84037642  0.49451501
   0.50835862  0.83615231  0.83356693
   0.82438433  0.16247975  0.16447195
   0.82920252  0.16421630  0.50572919
   0.83003218  0.15953324  0.82807710
   0.82743538  0.50217158  0.16553250
   0.83095514  0.50655741  0.50529982
   0.82399177  0.50090513  0.83742195
   0.83340542  0.83941056  0.16076367
   0.82595049  0.82782293  0.49600947
   0.83660397  0.83798421  0.83397447
