  24  24   0   0
  0.3396876E+02  0.6443258E-09  0.6663819E-09  0.1900594E-08  0.5000000E-15
  1.000000000000000E-004
  CAR 
 unknown system                          
      5.85793849    -35.45432991  301      1.37544199      1.00000000
    -35.454  0.0000E+00  0.0000E+00
    -35.317  0.0000E+00  0.0000E+00
    -35.179  0.0000E+00  0.0000E+00
    -35.041  0.0000E+00  0.0000E+00
    -34.903  0.0000E+00  0.0000E+00
    -34.766  0.0000E+00  0.0000E+00
    -34.628  0.0000E+00  0.0000E+00
    -34.490 -0.2932E-35 -0.4038E-36
    -34.353 -0.4116E-25 -0.5668E-26
    -34.215 -0.1273E-16 -0.1753E-17
    -34.077 -0.9210E-10 -0.1268E-10
    -33.940 -0.1691E-04 -0.2328E-05
    -33.802 -0.7469E-01 -0.1029E-01
    -33.664 -0.5067E+01 -0.7080E+00
    -33.526  0.8429E+02  0.1090E+02
    -33.389  0.1691E+03  0.3418E+02
    -33.251  0.8889E+02  0.4642E+02
    -33.113  0.1251E+02  0.4815E+02
    -32.976 -0.3200E+01  0.4771E+02
    -32.838  0.3462E+02  0.5247E+02
    -32.700  0.9554E+02  0.6563E+02
    -32.562  0.8848E+02  0.7782E+02
    -32.425  0.9634E+02  0.9108E+02
    -32.287  0.1177E+03  0.1073E+03
    -32.149  0.1079E+03  0.1222E+03
    -32.012  0.1060E+03  0.1367E+03
    -31.874  0.5555E+02  0.1444E+03
    -31.736 -0.2761E+01  0.1440E+03
    -31.599 -0.8283E-01  0.1440E+03
    -31.461 -0.3160E-04  0.1440E+03
    -31.323 -0.2680E-09  0.1440E+03
    -31.185  0.0000E+00  0.1440E+03
    -31.048  0.0000E+00  0.1440E+03
    -30.910  0.0000E+00  0.1440E+03
    -30.772  0.0000E+00  0.1440E+03
    -30.635  0.0000E+00  0.1440E+03
    -30.497  0.0000E+00  0.1440E+03
    -30.359  0.0000E+00  0.1440E+03
    -30.221  0.0000E+00  0.1440E+03
    -30.084  0.0000E+00  0.1440E+03
    -29.946  0.0000E+00  0.1440E+03
    -29.808  0.0000E+00  0.1440E+03
    -29.671  0.0000E+00  0.1440E+03
    -29.533  0.0000E+00  0.1440E+03
    -29.395  0.0000E+00  0.1440E+03
    -29.257  0.0000E+00  0.1440E+03
    -29.120  0.0000E+00  0.1440E+03
    -28.982  0.0000E+00  0.1440E+03
    -28.844  0.0000E+00  0.1440E+03
    -28.707  0.0000E+00  0.1440E+03
    -28.569  0.0000E+00  0.1440E+03
    -28.431  0.0000E+00  0.1440E+03
    -28.294  0.0000E+00  0.1440E+03
    -28.156  0.0000E+00  0.1440E+03
    -28.018  0.0000E+00  0.1440E+03
    -27.880  0.0000E+00  0.1440E+03
    -27.743  0.0000E+00  0.1440E+03
    -27.605  0.0000E+00  0.1440E+03
    -27.467  0.0000E+00  0.1440E+03
    -27.330  0.0000E+00  0.1440E+03
    -27.192  0.0000E+00  0.1440E+03
    -27.054  0.0000E+00  0.1440E+03
    -26.916  0.0000E+00  0.1440E+03
    -26.779  0.0000E+00  0.1440E+03
    -26.641  0.0000E+00  0.1440E+03
    -26.503  0.0000E+00  0.1440E+03
    -26.366  0.0000E+00  0.1440E+03
    -26.228  0.0000E+00  0.1440E+03
    -26.090  0.0000E+00  0.1440E+03
    -25.953  0.0000E+00  0.1440E+03
    -25.815  0.0000E+00  0.1440E+03
    -25.677  0.0000E+00  0.1440E+03
    -25.539  0.0000E+00  0.1440E+03
    -25.402  0.0000E+00  0.1440E+03
    -25.264  0.0000E+00  0.1440E+03
    -25.126  0.0000E+00  0.1440E+03
    -24.989  0.0000E+00  0.1440E+03
    -24.851  0.0000E+00  0.1440E+03
    -24.713  0.0000E+00  0.1440E+03
    -24.575  0.0000E+00  0.1440E+03
    -24.438  0.0000E+00  0.1440E+03
    -24.300  0.0000E+00  0.1440E+03
    -24.162  0.0000E+00  0.1440E+03
    -24.025  0.0000E+00  0.1440E+03
    -23.887  0.0000E+00  0.1440E+03
    -23.749  0.0000E+00  0.1440E+03
    -23.611  0.0000E+00  0.1440E+03
    -23.474  0.0000E+00  0.1440E+03
    -23.336  0.0000E+00  0.1440E+03
    -23.198  0.0000E+00  0.1440E+03
    -23.061  0.0000E+00  0.1440E+03
    -22.923  0.0000E+00  0.1440E+03
    -22.785  0.0000E+00  0.1440E+03
    -22.648  0.0000E+00  0.1440E+03
    -22.510  0.0000E+00  0.1440E+03
    -22.372  0.0000E+00  0.1440E+03
    -22.234  0.0000E+00  0.1440E+03
    -22.097  0.0000E+00  0.1440E+03
    -21.959  0.0000E+00  0.1440E+03
    -21.821  0.0000E+00  0.1440E+03
    -21.684  0.0000E+00  0.1440E+03
    -21.546  0.0000E+00  0.1440E+03
    -21.408  0.0000E+00  0.1440E+03
    -21.270  0.0000E+00  0.1440E+03
    -21.133  0.0000E+00  0.1440E+03
    -20.995  0.0000E+00  0.1440E+03
    -20.857  0.0000E+00  0.1440E+03
    -20.720  0.0000E+00  0.1440E+03
    -20.582  0.0000E+00  0.1440E+03
    -20.444  0.0000E+00  0.1440E+03
    -20.306  0.0000E+00  0.1440E+03
    -20.169  0.0000E+00  0.1440E+03
    -20.031  0.0000E+00  0.1440E+03
    -19.893  0.0000E+00  0.1440E+03
    -19.756  0.0000E+00  0.1440E+03
    -19.618  0.0000E+00  0.1440E+03
    -19.480  0.0000E+00  0.1440E+03
    -19.343  0.0000E+00  0.1440E+03
    -19.205  0.0000E+00  0.1440E+03
    -19.067  0.0000E+00  0.1440E+03
    -18.929  0.0000E+00  0.1440E+03
    -18.792  0.0000E+00  0.1440E+03
    -18.654  0.0000E+00  0.1440E+03
    -18.516  0.0000E+00  0.1440E+03
    -18.379  0.0000E+00  0.1440E+03
    -18.241  0.0000E+00  0.1440E+03
    -18.103  0.0000E+00  0.1440E+03
    -17.965  0.0000E+00  0.1440E+03
    -17.828  0.0000E+00  0.1440E+03
    -17.690  0.0000E+00  0.1440E+03
    -17.552  0.0000E+00  0.1440E+03
    -17.415  0.0000E+00  0.1440E+03
    -17.277  0.0000E+00  0.1440E+03
    -17.139  0.0000E+00  0.1440E+03
    -17.002  0.0000E+00  0.1440E+03
    -16.864  0.0000E+00  0.1440E+03
    -16.726  0.0000E+00  0.1440E+03
    -16.588  0.0000E+00  0.1440E+03
    -16.451  0.0000E+00  0.1440E+03
    -16.313  0.0000E+00  0.1440E+03
    -16.175  0.0000E+00  0.1440E+03
    -16.038  0.0000E+00  0.1440E+03
    -15.900  0.0000E+00  0.1440E+03
    -15.762  0.0000E+00  0.1440E+03
    -15.624  0.0000E+00  0.1440E+03
    -15.487  0.0000E+00  0.1440E+03
    -15.349  0.0000E+00  0.1440E+03
    -15.211  0.0000E+00  0.1440E+03
    -15.074  0.0000E+00  0.1440E+03
    -14.936  0.0000E+00  0.1440E+03
    -14.798  0.0000E+00  0.1440E+03
    -14.660  0.0000E+00  0.1440E+03
    -14.523  0.0000E+00  0.1440E+03
    -14.385  0.0000E+00  0.1440E+03
    -14.247  0.0000E+00  0.1440E+03
    -14.110  0.0000E+00  0.1440E+03
    -13.972  0.0000E+00  0.1440E+03
    -13.834  0.0000E+00  0.1440E+03
    -13.697  0.0000E+00  0.1440E+03
    -13.559  0.0000E+00  0.1440E+03
    -13.421  0.0000E+00  0.1440E+03
    -13.283  0.0000E+00  0.1440E+03
    -13.146  0.0000E+00  0.1440E+03
    -13.008  0.0000E+00  0.1440E+03
    -12.870  0.0000E+00  0.1440E+03
    -12.733  0.0000E+00  0.1440E+03
    -12.595  0.0000E+00  0.1440E+03
    -12.457  0.0000E+00  0.1440E+03
    -12.319  0.0000E+00  0.1440E+03
    -12.182  0.0000E+00  0.1440E+03
    -12.044  0.0000E+00  0.1440E+03
    -11.906  0.0000E+00  0.1440E+03
    -11.769  0.0000E+00  0.1440E+03
    -11.631  0.0000E+00  0.1440E+03
    -11.493  0.0000E+00  0.1440E+03
    -11.356  0.0000E+00  0.1440E+03
    -11.218  0.0000E+00  0.1440E+03
    -11.080  0.0000E+00  0.1440E+03
    -10.942  0.0000E+00  0.1440E+03
    -10.805  0.0000E+00  0.1440E+03
    -10.667  0.0000E+00  0.1440E+03
    -10.529  0.0000E+00  0.1440E+03
    -10.392  0.0000E+00  0.1440E+03
    -10.254  0.0000E+00  0.1440E+03
    -10.116  0.0000E+00  0.1440E+03
     -9.978  0.0000E+00  0.1440E+03
     -9.841  0.0000E+00  0.1440E+03
     -9.703  0.0000E+00  0.1440E+03
     -9.565  0.0000E+00  0.1440E+03
     -9.428  0.0000E+00  0.1440E+03
     -9.290  0.0000E+00  0.1440E+03
     -9.152  0.0000E+00  0.1440E+03
     -9.014  0.0000E+00  0.1440E+03
     -8.877  0.0000E+00  0.1440E+03
     -8.739  0.0000E+00  0.1440E+03
     -8.601  0.0000E+00  0.1440E+03
     -8.464  0.0000E+00  0.1440E+03
     -8.326  0.0000E+00  0.1440E+03
     -8.188  0.0000E+00  0.1440E+03
     -8.051  0.0000E+00  0.1440E+03
     -7.913  0.0000E+00  0.1440E+03
     -7.775  0.0000E+00  0.1440E+03
     -7.637  0.0000E+00  0.1440E+03
     -7.500  0.0000E+00  0.1440E+03
     -7.362  0.0000E+00  0.1440E+03
     -7.224  0.0000E+00  0.1440E+03
     -7.087 -0.9299E-34  0.1440E+03
     -6.949 -0.4843E-24  0.1440E+03
     -6.811 -0.5491E-16  0.1440E+03
     -6.673 -0.1274E-09  0.1440E+03
     -6.536 -0.6102E-05  0.1440E+03
     -6.398 -0.4823E-02  0.1440E+03
     -6.260  0.4764E-01  0.1440E+03
     -6.123  0.4524E+00  0.1441E+03
     -5.985  0.1238E+01  0.1442E+03
     -5.847  0.1324E+01  0.1444E+03
     -5.709  0.2042E+01  0.1447E+03
     -5.572  0.1211E+00  0.1447E+03
     -5.434  0.2750E+00  0.1448E+03
     -5.296  0.1793E+01  0.1450E+03
     -5.159  0.3727E+01  0.1455E+03
     -5.021  0.3101E+01  0.1459E+03
     -4.883  0.1444E+01  0.1461E+03
     -4.746  0.1815E+01  0.1464E+03
     -4.608  0.1709E+01  0.1466E+03
     -4.470  0.3387E+01  0.1471E+03
     -4.332  0.5202E+01  0.1478E+03
     -4.195  0.5816E+01  0.1486E+03
     -4.057  0.1962E+00  0.1486E+03
     -3.919  0.3239E+00  0.1487E+03
     -3.782  0.6764E+01  0.1496E+03
     -3.644  0.4706E+01  0.1503E+03
     -3.506  0.5020E+01  0.1510E+03
     -3.368  0.3705E+01  0.1515E+03
     -3.231  0.7588E+01  0.1525E+03
     -3.093  0.8632E+01  0.1537E+03
     -2.955  0.1308E+02  0.1555E+03
     -2.818  0.8761E+01  0.1567E+03
     -2.680  0.1194E+02  0.1583E+03
     -2.542  0.1489E+02  0.1604E+03
     -2.405  0.1147E+02  0.1620E+03
     -2.267  0.1430E+02  0.1639E+03
     -2.129  0.2128E+02  0.1669E+03
     -1.991  0.2301E+02  0.1700E+03
     -1.854  0.2205E+02  0.1731E+03
     -1.716  0.1769E+02  0.1755E+03
     -1.578  0.2892E+02  0.1795E+03
     -1.441  0.3672E+02  0.1846E+03
     -1.303  0.2226E+02  0.1876E+03
     -1.165  0.1038E+02  0.1891E+03
     -1.027  0.1405E+02  0.1910E+03
     -0.890  0.2515E+02  0.1945E+03
     -0.752  0.9495E+01  0.1958E+03
     -0.614  0.1136E+02  0.1973E+03
     -0.477  0.3075E+02  0.2016E+03
     -0.339  0.2774E+02  0.2054E+03
     -0.201  0.3948E+02  0.2108E+03
     -0.063  0.3324E+02  0.2154E+03
      0.074  0.3285E+02  0.2199E+03
      0.212  0.3252E+02  0.2244E+03
      0.350  0.3526E+02  0.2292E+03
      0.487  0.3580E+02  0.2342E+03
      0.625  0.4167E+02  0.2399E+03
      0.763  0.4692E+02  0.2464E+03
      0.900  0.3095E+02  0.2506E+03
      1.038  0.3517E+02  0.2555E+03
      1.176  0.2737E+02  0.2593E+03
      1.314  0.2556E+02  0.2628E+03
      1.451  0.1949E+02  0.2655E+03
      1.589  0.2776E+02  0.2693E+03
      1.727  0.4036E+02  0.2748E+03
      1.864  0.3880E+02  0.2802E+03
      2.002  0.3515E+02  0.2850E+03
      2.140  0.3047E+02  0.2892E+03
      2.278  0.2617E+02  0.2928E+03
      2.415  0.2086E+02  0.2957E+03
      2.553  0.1619E+02  0.2979E+03
      2.691  0.1290E+02  0.2997E+03
      2.828  0.2196E+02  0.3027E+03
      2.966  0.2421E+02  0.3061E+03
      3.104  0.1312E+02  0.3079E+03
      3.241  0.2710E+02  0.3116E+03
      3.379  0.3217E+02  0.3160E+03
      3.517  0.2764E+02  0.3198E+03
      3.655  0.1583E+02  0.3220E+03
      3.792  0.8650E+01  0.3232E+03
      3.930  0.2726E+01  0.3236E+03
      4.068  0.3190E+01  0.3240E+03
      4.205 -0.1329E+00  0.3240E+03
      4.343 -0.5782E-02  0.3240E+03
      4.481 -0.2068E-05  0.3240E+03
      4.619 -0.1548E-10  0.3240E+03
      4.756  0.0000E+00  0.3240E+03
      4.894  0.0000E+00  0.3240E+03
      5.032  0.0000E+00  0.3240E+03
      5.169  0.0000E+00  0.3240E+03
      5.307  0.0000E+00  0.3240E+03
      5.445  0.0000E+00  0.3240E+03
      5.583  0.0000E+00  0.3240E+03
      5.720  0.0000E+00  0.3240E+03
      5.858  0.0000E+00  0.3240E+03
