   24   24    1    1
  0.3396876E+02  0.6443258E-09  0.6663819E-09  0.1900594E-08  0.5000000E-15
  1.000000000000000E-004
  CAR 
 unknown system                          
    264     26    162
 
  0.0000000E+00  0.0000000E+00  0.0000000E+00  0.2000000E-01
      1        -33.576500   1.000000
      2        -33.570486   1.000000
      3        -33.554204   1.000000
      4        -33.550726   1.000000
      5        -33.549848   1.000000
      6        -33.548425   1.000000
      7        -33.545864   1.000000
      8        -33.540791   1.000000
      9        -33.538159   1.000000
     10        -33.529188   1.000000
     11        -33.514593   1.000000
     12        -33.513732   1.000000
     13        -33.498874   1.000000
     14        -33.498576   1.000000
     15        -33.426816   1.000000
     16        -33.417242   1.000000
     17        -33.339940   1.000000
     18        -33.333711   1.000000
     19        -33.292986   1.000000
     20        -33.288358   1.000000
     21        -33.273903   1.000000
     22        -33.260113   1.000000
     23        -33.240717   1.000000
     24        -33.230517   1.000000
     25        -32.888295   1.000000
     26        -32.881073   1.000000
     27        -32.875324   1.000000
     28        -32.872587   1.000000
     29        -32.866442   1.000000
     30        -32.860312   1.000000
     31        -32.744026   1.000000
     32        -32.666198   1.000000
     33        -32.662661   1.000000
     34        -32.645279   1.000000
     35        -32.633461   1.000000
     36        -32.622031   1.000000
     37        -32.617601   1.000000
     38        -32.593429   1.000000
     39        -32.591598   1.000000
     40        -32.528642   1.000000
     41        -32.481481   1.000000
     42        -32.467677   1.000000
     43        -32.459042   1.000000
     44        -32.418506   1.000000
     45        -32.396635   1.000000
     46        -32.383915   1.000000
     47        -32.378441   1.000000
     48        -32.368947   1.000000
     49        -32.361337   1.000000
     50        -32.352371   1.000000
     51        -32.337626   1.000000
     52        -32.326993   1.000000
     53        -32.319633   1.000000
     54        -32.291683   1.000000
     55        -32.269912   1.000000
     56        -32.256724   1.000000
     57        -32.250745   1.000000
     58        -32.246710   1.000000
     59        -32.229112   1.000000
     60        -32.225461   1.000000
     61        -32.205587   1.000000
     62        -32.187987   1.000000
     63        -32.170645   1.000000
     64        -32.098652   1.000000
     65        -32.059893   1.000000
     66        -32.043593   1.000000
     67        -32.035894   1.000000
     68        -32.005852   1.000000
     69        -31.991364   1.000000
     70        -31.984872   1.000000
     71        -31.970258   1.000000
     72        -31.949530   1.000000
     73         -6.199246   1.000000
     74         -5.209188   1.000000
     75         -3.694596   1.000000
     76         -2.915597   1.000000
     77         -2.897177   1.000000
     78         -2.893129   1.000000
     79         -2.813807   1.000000
     80         -2.625393   1.000000
     81         -2.618438   1.000000
     82         -2.583535   1.000000
     83         -2.577206   1.000000
     84         -2.464624   1.000000
     85         -2.425328   1.000000
     86         -2.350863   1.000000
     87         -2.215471   1.000000
     88         -2.156405   1.000000
     89         -2.135902   1.000000
     90         -2.130918   1.000000
     91         -1.911823   1.000000
     92         -1.895856   1.000000
     93         -1.879235   1.000000
     94         -1.677829   1.000000
     95         -1.671984   1.000000
     96         -1.640983   1.000000
     97         -0.664290   1.000000
     98         -0.651202   1.000000
     99         -0.585487   1.000000
    100         -0.571457   1.000000
    101         -0.548762   1.000000
    102         -0.538101   1.000000
    103         -0.532516   1.000000
    104         -0.164047   1.000000
    105         -0.136905   1.000000
    106         -0.062967   1.000000
    107          0.104585   1.000000
    108          0.183177   1.000000
    109          0.209489   1.000000
    110          0.263454   1.000000
    111          0.302994   1.000000
    112          0.427115   1.000000
    113          0.474269   1.000000
    114          0.600827   1.000000
    115          0.619809   1.000000
    116          0.658916   1.000000
    117          0.687612   1.000000
    118          0.728146   1.000000
    119          0.738297   1.000000
    120          0.763220   1.000000
    121          0.782764   1.000000
    122          0.805417   1.000000
    123          1.102781   1.000397
    124          1.142809   1.002428
    125          1.238967   1.032980
    126          1.261469   1.034211
    127          1.441944   0.052935
    128          1.468664  -0.016588
    129          1.497501  -0.035455
    130          1.511979  -0.032960
    131          1.556344  -0.014087
    132          1.603985  -0.002861
    133          1.859117  -0.000000
    134          1.869506  -0.000000
    135          1.906408  -0.000000
    136          1.917958  -0.000000
    137          1.943553  -0.000000
    138          1.976443  -0.000000
    139          2.104217  -0.000000
    140          2.119397  -0.000000
    141          2.151377  -0.000000
    142          2.170875  -0.000000
    143          2.285334  -0.000000
    144          2.366383  -0.000000
    145          2.374525  -0.000000
    146          2.532663  -0.000000
    147          2.636067  -0.000000
    148          2.649999  -0.000000
    149          2.994688  -0.000000
    150          3.069190  -0.000000
    151          3.089878  -0.000000
    152          3.138049  -0.000000
    153          3.210256  -0.000000
    154          3.330907  -0.000000
    155          3.424865  -0.000000
    156          3.457027  -0.000000
    157          3.504252  -0.000000
    158          3.527810  -0.000000
    159          3.534871  -0.000000
    160          3.559689  -0.000000
    161          3.761231  -0.000000
    162          3.772152  -0.000000
 
  0.2000000E+00 -0.5906120E-19 -0.3554876E-14  0.4000000E-01
      1        -33.555158   1.000000
      2        -33.550076   1.000000
      3        -33.549115   1.000000
      4        -33.543024   1.000000
      5        -33.540746   1.000000
      6        -33.537782   1.000000
      7        -33.532507   1.000000
      8        -33.528669   1.000000
      9        -33.528120   1.000000
     10        -33.523213   1.000000
     11        -33.512999   1.000000
     12        -33.512134   1.000000
     13        -33.497895   1.000000
     14        -33.496817   1.000000
     15        -33.430806   1.000000
     16        -33.420468   1.000000
     17        -33.336431   1.000000
     18        -33.328973   1.000000
     19        -33.320963   1.000000
     20        -33.316819   1.000000
     21        -33.278959   1.000000
     22        -33.269940   1.000000
     23        -33.263485   1.000000
     24        -33.259082   1.000000
     25        -32.870622   1.000000
     26        -32.866634   1.000000
     27        -32.861782   1.000000
     28        -32.856912   1.000000
     29        -32.852388   1.000000
     30        -32.839003   1.000000
     31        -32.743192   1.000000
     32        -32.678757   1.000000
     33        -32.675970   1.000000
     34        -32.651220   1.000000
     35        -32.640568   1.000000
     36        -32.634789   1.000000
     37        -32.625282   1.000000
     38        -32.596608   1.000000
     39        -32.581584   1.000000
     40        -32.516093   1.000000
     41        -32.482801   1.000000
     42        -32.474892   1.000000
     43        -32.464002   1.000000
     44        -32.455901   1.000000
     45        -32.422663   1.000000
     46        -32.407131   1.000000
     47        -32.399377   1.000000
     48        -32.391400   1.000000
     49        -32.372708   1.000000
     50        -32.353064   1.000000
     51        -32.323960   1.000000
     52        -32.315423   1.000000
     53        -32.306615   1.000000
     54        -32.298786   1.000000
     55        -32.275807   1.000000
     56        -32.265743   1.000000
     57        -32.250281   1.000000
     58        -32.232153   1.000000
     59        -32.216061   1.000000
     60        -32.209746   1.000000
     61        -32.185516   1.000000
     62        -32.167701   1.000000
     63        -32.158821   1.000000
     64        -32.089525   1.000000
     65        -32.056538   1.000000
     66        -32.041869   1.000000
     67        -32.036777   1.000000
     68        -32.016567   1.000000
     69        -32.000809   1.000000
     70        -31.984381   1.000000
     71        -31.980810   1.000000
     72        -31.958409   1.000000
     73         -5.976822   1.000000
     74         -5.016328   1.000000
     75         -3.551149   1.000000
     76         -3.320611   1.000000
     77         -3.129497   1.000000
     78         -2.809907   1.000000
     79         -2.684170   1.000000
     80         -2.662190   1.000000
     81         -2.532279   1.000000
     82         -2.525771   1.000000
     83         -2.421085   1.000000
     84         -2.416141   1.000000
     85         -2.329695   1.000000
     86         -2.238186   1.000000
     87         -2.107715   1.000000
     88         -1.985461   1.000000
     89         -1.968707   1.000000
     90         -1.954623   1.000000
     91         -1.875350   1.000000
     92         -1.775733   1.000000
     93         -1.612007   1.000000
     94         -1.606564   1.000000
     95         -1.488894   1.000000
     96         -1.455442   1.000000
     97         -0.701343   1.000000
     98         -0.694149   1.000000
     99         -0.535564   1.000000
    100         -0.520294   1.000000
    101         -0.499075   1.000000
    102         -0.401022   1.000000
    103         -0.359169   1.000000
    104         -0.329488   1.000000
    105         -0.150306   1.000000
    106         -0.108968   1.000000
    107          0.005093   1.000000
    108          0.019446   1.000000
    109          0.063082   1.000000
    110          0.199520   1.000000
    111          0.210850   1.000000
    112          0.238850   1.000000
    113          0.405233   1.000000
    114          0.423180   1.000000
    115          0.443393   1.000000
    116          0.510101   1.000000
    117          0.554647   1.000000
    118          0.655383   1.000000
    119          0.745751   1.000000
    120          0.758731   1.000000
    121          0.801816   1.000000
    122          0.915503   1.000000
    123          1.081681   1.000132
    124          1.104851   1.000440
    125          1.168139   1.006270
    126          1.235558   1.031815
    127          1.297409   0.984843
    128          1.364240   0.594140
    129          1.526074  -0.027369
    130          1.553790  -0.015074
    131          1.566118  -0.010678
    132          1.616169  -0.001735
    133          1.621690  -0.001367
    134          1.655658  -0.000270
    135          1.696519  -0.000027
    136          1.749345  -0.000001
    137          1.795388  -0.000000
    138          1.847025  -0.000000
    139          1.882752  -0.000000
    140          1.961967  -0.000000
    141          2.112512  -0.000000
    142          2.180214  -0.000000
    143          2.190119  -0.000000
    144          2.210657  -0.000000
    145          2.272812  -0.000000
    146          2.374415  -0.000000
    147          2.435863  -0.000000
    148          2.806242  -0.000000
    149          2.844933  -0.000000
    150          2.855913  -0.000000
    151          3.050968  -0.000000
    152          3.141716  -0.000000
    153          3.242171  -0.000000
    154          3.272333  -0.000000
    155          3.313535  -0.000000
    156          3.349707  -0.000000
    157          3.371314  -0.000000
    158          3.399571  -0.000000
    159          3.417681  -0.000000
    160          3.431001  -0.000000
    161          3.450509  -0.000000
    162          3.489648  -0.000000
 
  0.4000000E+00 -0.1261751E-18  0.9042617E-15  0.4000000E-01
      1        -33.542734   1.000000
      2        -33.538731   1.000000
      3        -33.537778   1.000000
      4        -33.526810   1.000000
      5        -33.524389   1.000000
      6        -33.518730   1.000000
      7        -33.515064   1.000000
      8        -33.510766   1.000000
      9        -33.508668   1.000000
     10        -33.501653   1.000000
     11        -33.490070   1.000000
     12        -33.485948   1.000000
     13        -33.474484   1.000000
     14        -33.473515   1.000000
     15        -33.418027   1.000000
     16        -33.416619   1.000000
     17        -33.388367   1.000000
     18        -33.387912   1.000000
     19        -33.341619   1.000000
     20        -33.329986   1.000000
     21        -33.323856   1.000000
     22        -33.316756   1.000000
     23        -33.290412   1.000000
     24        -33.269697   1.000000
     25        -32.840806   1.000000
     26        -32.834553   1.000000
     27        -32.829148   1.000000
     28        -32.821715   1.000000
     29        -32.818897   1.000000
     30        -32.784057   1.000000
     31        -32.764053   1.000000
     32        -32.717246   1.000000
     33        -32.699649   1.000000
     34        -32.691554   1.000000
     35        -32.677131   1.000000
     36        -32.671810   1.000000
     37        -32.600566   1.000000
     38        -32.563696   1.000000
     39        -32.544773   1.000000
     40        -32.540147   1.000000
     41        -32.532626   1.000000
     42        -32.487387   1.000000
     43        -32.462436   1.000000
     44        -32.447502   1.000000
     45        -32.440127   1.000000
     46        -32.421434   1.000000
     47        -32.409958   1.000000
     48        -32.402024   1.000000
     49        -32.395179   1.000000
     50        -32.387347   1.000000
     51        -32.360471   1.000000
     52        -32.355488   1.000000
     53        -32.320622   1.000000
     54        -32.298343   1.000000
     55        -32.257910   1.000000
     56        -32.249638   1.000000
     57        -32.225598   1.000000
     58        -32.220710   1.000000
     59        -32.198742   1.000000
     60        -32.178797   1.000000
     61        -32.171292   1.000000
     62        -32.138753   1.000000
     63        -32.103430   1.000000
     64        -32.086802   1.000000
     65        -32.055630   1.000000
     66        -32.047778   1.000000
     67        -32.040407   1.000000
     68        -32.035454   1.000000
     69        -32.024205   1.000000
     70        -32.003301   1.000000
     71        -31.979210   1.000000
     72        -31.969444   1.000000
     73         -5.343477   1.000000
     74         -4.489990   1.000000
     75         -4.394622   1.000000
     76         -3.770572   1.000000
     77         -3.215324   1.000000
     78         -2.920820   1.000000
     79         -2.314452   1.000000
     80         -2.305552   1.000000
     81         -2.212194   1.000000
     82         -2.195763   1.000000
     83         -2.186241   1.000000
     84         -2.110568   1.000000
     85         -2.067803   1.000000
     86         -2.045427   1.000000
     87         -1.838755   1.000000
     88         -1.757497   1.000000
     89         -1.685047   1.000000
     90         -1.571613   1.000000
     91         -1.562238   1.000000
     92         -1.545045   1.000000
     93         -1.532909   1.000000
     94         -1.470430   1.000000
     95         -1.414775   1.000000
     96         -1.014591   1.000000
     97         -1.005636   1.000000
     98         -0.960463   1.000000
     99         -0.895626   1.000000
    100         -0.523965   1.000000
    101         -0.514058   1.000000
    102         -0.335177   1.000000
    103         -0.323197   1.000000
    104         -0.240845   1.000000
    105         -0.220200   1.000000
    106         -0.165417   1.000000
    107         -0.130770   1.000000
    108         -0.064952   1.000000
    109         -0.054827   1.000000
    110          0.108970   1.000000
    111          0.139474   1.000000
    112          0.293073   1.000000
    113          0.310207   1.000000
    114          0.383984   1.000000
    115          0.533459   1.000000
    116          0.556907   1.000000
    117          0.597802   1.000000
    118          0.607536   1.000000
    119          0.649884   1.000000
    120          0.700634   1.000000
    121          0.707776   1.000000
    122          0.736825   1.000000
    123          0.844576   1.000000
    124          0.880893   1.000000
    125          0.925889   1.000000
    126          0.955994   1.000000
    127          0.985162   1.000000
    128          1.031404   1.000006
    129          1.134354   1.001708
    130          1.152091   1.003502
    131          1.202409   1.017246
    132          1.227806   1.028692
    133          1.257889   1.035059
    134          1.275353   1.025219
    135          1.435600   0.079280
    136          1.509256  -0.033768
    137          1.577641  -0.007442
    138          1.654566  -0.000286
    139          1.665930  -0.000157
    140          1.742285  -0.000001
    141          1.839252  -0.000000
    142          1.850380  -0.000000
    143          2.264886  -0.000000
    144          2.325246  -0.000000
    145          2.334218  -0.000000
    146          2.406945  -0.000000
    147          2.463158  -0.000000
    148          2.528836  -0.000000
    149          2.625909  -0.000000
    150          2.799953  -0.000000
    151          2.832207  -0.000000
    152          2.848434  -0.000000
    153          2.852801  -0.000000
    154          2.882975  -0.000000
    155          3.123528  -0.000000
    156          3.216522  -0.000000
    157          3.271954  -0.000000
    158          3.303442  -0.000000
    159          3.349232  -0.000000
    160          3.489498  -0.000000
    161          3.524293  -0.000000
    162          3.583242  -0.000000
 
  0.1222685E-35  0.2000000E+00 -0.1788099E-14  0.4000000E-01
      1        -33.573751   1.000000
      2        -33.567468   1.000000
      3        -33.550478   1.000000
      4        -33.548729   1.000000
      5        -33.544799   1.000000
      6        -33.538948   1.000000
      7        -33.537707   1.000000
      8        -33.532777   1.000000
      9        -33.527211   1.000000
     10        -33.521498   1.000000
     11        -33.506552   1.000000
     12        -33.503658   1.000000
     13        -33.496058   1.000000
     14        -33.492033   1.000000
     15        -33.428066   1.000000
     16        -33.418116   1.000000
     17        -33.360796   1.000000
     18        -33.355321   1.000000
     19        -33.296005   1.000000
     20        -33.290343   1.000000
     21        -33.284751   1.000000
     22        -33.281944   1.000000
     23        -33.244099   1.000000
     24        -33.232797   1.000000
     25        -32.878340   1.000000
     26        -32.868007   1.000000
     27        -32.861359   1.000000
     28        -32.858824   1.000000
     29        -32.851176   1.000000
     30        -32.847691   1.000000
     31        -32.745048   1.000000
     32        -32.687366   1.000000
     33        -32.682409   1.000000
     34        -32.671611   1.000000
     35        -32.659850   1.000000
     36        -32.653572   1.000000
     37        -32.615503   1.000000
     38        -32.593210   1.000000
     39        -32.549878   1.000000
     40        -32.518626   1.000000
     41        -32.503345   1.000000
     42        -32.471172   1.000000
     43        -32.449892   1.000000
     44        -32.415997   1.000000
     45        -32.411555   1.000000
     46        -32.399419   1.000000
     47        -32.393635   1.000000
     48        -32.377610   1.000000
     49        -32.374316   1.000000
     50        -32.355848   1.000000
     51        -32.332947   1.000000
     52        -32.322559   1.000000
     53        -32.302983   1.000000
     54        -32.286461   1.000000
     55        -32.273702   1.000000
     56        -32.264682   1.000000
     57        -32.252809   1.000000
     58        -32.236804   1.000000
     59        -32.228284   1.000000
     60        -32.216181   1.000000
     61        -32.180547   1.000000
     62        -32.160986   1.000000
     63        -32.154142   1.000000
     64        -32.096907   1.000000
     65        -32.059292   1.000000
     66        -32.047647   1.000000
     67        -32.039022   1.000000
     68        -32.010872   1.000000
     69        -31.999203   1.000000
     70        -31.991498   1.000000
     71        -31.974194   1.000000
     72        -31.955357   1.000000
     73         -5.993049   1.000000
     74         -5.034530   1.000000
     75         -3.576987   1.000000
     76         -3.468945   1.000000
     77         -3.230019   1.000000
     78         -2.889924   1.000000
     79         -2.691018   1.000000
     80         -2.608860   1.000000
     81         -2.533759   1.000000
     82         -2.524320   1.000000
     83         -2.440853   1.000000
     84         -2.327283   1.000000
     85         -2.287700   1.000000
     86         -2.267802   1.000000
     87         -2.080203   1.000000
     88         -2.038185   1.000000
     89         -2.011878   1.000000
     90         -1.808831   1.000000
     91         -1.797373   1.000000
     92         -1.780893   1.000000
     93         -1.684593   1.000000
     94         -1.633840   1.000000
     95         -1.614445   1.000000
     96         -1.500798   1.000000
     97         -0.759730   1.000000
     98         -0.746741   1.000000
     99         -0.553178   1.000000
    100         -0.543081   1.000000
    101         -0.497516   1.000000
    102         -0.468522   1.000000
    103         -0.398622   1.000000
    104         -0.323507   1.000000
    105         -0.218162   1.000000
    106         -0.162035   1.000000
    107         -0.147942   1.000000
    108         -0.041902   1.000000
    109          0.047833   1.000000
    110          0.050747   1.000000
    111          0.278939   1.000000
    112          0.290723   1.000000
    113          0.305143   1.000000
    114          0.515111   1.000000
    115          0.558216   1.000000
    116          0.586951   1.000000
    117          0.626304   1.000000
    118          0.688385   1.000000
    119          0.709162   1.000000
    120          0.721799   1.000000
    121          0.939013   1.000000
    122          1.085176   1.000159
    123          1.147155   1.002890
    124          1.171830   1.007102
    125          1.192888   1.013469
    126          1.268986   1.030595
    127          1.311333   0.937601
    128          1.373690   0.514821
    129          1.482820  -0.031187
    130          1.536556  -0.022552
    131          1.566734  -0.010484
    132          1.595015  -0.004040
    133          1.660580  -0.000209
    134          1.692654  -0.000035
    135          1.723522  -0.000005
    136          1.752915  -0.000001
    137          1.840235  -0.000000
    138          1.912385  -0.000000
    139          1.973161  -0.000000
    140          2.009553  -0.000000
    141          2.066614  -0.000000
    142          2.131673  -0.000000
    143          2.164627  -0.000000
    144          2.317182  -0.000000
    145          2.376750  -0.000000
    146          2.522939  -0.000000
    147          2.621874  -0.000000
    148          2.883971  -0.000000
    149          2.918018  -0.000000
    150          2.931838  -0.000000
    151          3.006713  -0.000000
    152          3.058417  -0.000000
    153          3.117062  -0.000000
    154          3.166930  -0.000000
    155          3.190162  -0.000000
    156          3.209677  -0.000000
    157          3.256413  -0.000000
    158          3.324626  -0.000000
    159          3.346201  -0.000000
    160          3.388261  -0.000000
    161          3.409229  -0.000000
    162          3.507722  -0.000000
 
  0.2000000E+00  0.2000000E+00  0.1763016E-14  0.4000000E-01
      1        -33.552496   1.000000
      2        -33.546463   1.000000
      3        -33.540140   1.000000
      4        -33.536215   1.000000
      5        -33.532386   1.000000
      6        -33.528962   1.000000
      7        -33.527368   1.000000
      8        -33.526542   1.000000
      9        -33.521977   1.000000
     10        -33.516252   1.000000
     11        -33.503156   1.000000
     12        -33.501978   1.000000
     13        -33.493683   1.000000
     14        -33.491230   1.000000
     15        -33.432942   1.000000
     16        -33.421800   1.000000
     17        -33.357246   1.000000
     18        -33.350468   1.000000
     19        -33.318433   1.000000
     20        -33.313657   1.000000
     21        -33.300908   1.000000
     22        -33.285463   1.000000
     23        -33.273507   1.000000
     24        -33.261445   1.000000
     25        -32.862865   1.000000
     26        -32.854244   1.000000
     27        -32.844828   1.000000
     28        -32.841116   1.000000
     29        -32.833974   1.000000
     30        -32.825114   1.000000
     31        -32.744257   1.000000
     32        -32.721178   1.000000
     33        -32.674875   1.000000
     34        -32.655375   1.000000
     35        -32.646014   1.000000
     36        -32.635594   1.000000
     37        -32.618624   1.000000
     38        -32.611679   1.000000
     39        -32.589484   1.000000
     40        -32.539275   1.000000
     41        -32.508227   1.000000
     42        -32.491543   1.000000
     43        -32.457512   1.000000
     44        -32.447018   1.000000
     45        -32.425721   1.000000
     46        -32.410115   1.000000
     47        -32.405414   1.000000
     48        -32.395908   1.000000
     49        -32.375188   1.000000
     50        -32.342988   1.000000
     51        -32.333670   1.000000
     52        -32.316124   1.000000
     53        -32.305657   1.000000
     54        -32.293802   1.000000
     55        -32.284718   1.000000
     56        -32.272683   1.000000
     57        -32.227283   1.000000
     58        -32.223148   1.000000
     59        -32.215233   1.000000
     60        -32.202565   1.000000
     61        -32.188226   1.000000
     62        -32.139669   1.000000
     63        -32.134639   1.000000
     64        -32.095996   1.000000
     65        -32.058959   1.000000
     66        -32.047886   1.000000
     67        -32.038020   1.000000
     68        -32.017159   1.000000
     69        -32.001934   1.000000
     70        -31.993706   1.000000
     71        -31.977726   1.000000
     72        -31.966082   1.000000
     73         -5.774232   1.000000
     74         -4.838893   1.000000
     75         -3.419324   1.000000
     76         -3.325207   1.000000
     77         -3.199573   1.000000
     78         -3.015548   1.000000
     79         -2.938658   1.000000
     80         -2.654585   1.000000
     81         -2.649020   1.000000
     82         -2.599365   1.000000
     83         -2.270332   1.000000
     84         -2.214604   1.000000
     85         -2.136323   1.000000
     86         -2.124393   1.000000
     87         -1.957770   1.000000
     88         -1.855174   1.000000
     89         -1.800816   1.000000
     90         -1.695227   1.000000
     91         -1.670814   1.000000
     92         -1.618458   1.000000
     93         -1.529823   1.000000
     94         -1.472409   1.000000
     95         -1.415119   1.000000
     96         -1.344257   1.000000
     97         -0.819927   1.000000
     98         -0.559572   1.000000
     99         -0.541665   1.000000
    100         -0.529411   1.000000
    101         -0.506276   1.000000
    102         -0.490480   1.000000
    103         -0.461832   1.000000
    104         -0.355974   1.000000
    105         -0.259810   1.000000
    106         -0.171937   1.000000
    107         -0.048926   1.000000
    108         -0.021026   1.000000
    109          0.042749   1.000000
    110          0.098960   1.000000
    111          0.173722   1.000000
    112          0.239096   1.000000
    113          0.301026   1.000000
    114          0.334346   1.000000
    115          0.382027   1.000000
    116          0.499316   1.000000
    117          0.524242   1.000000
    118          0.546057   1.000000
    119          0.607723   1.000000
    120          0.685334   1.000000
    121          0.842013   1.000000
    122          0.963045   1.000000
    123          0.990161   1.000000
    124          1.019812   1.000003
    125          1.070838   1.000072
    126          1.092981   1.000241
    127          1.115588   1.000737
    128          1.219542   1.024963
    129          1.275737   1.024818
    130          1.370599   0.540929
    131          1.417516   0.176486
    132          1.430363   0.104080
    133          1.487643  -0.033595
    134          1.522693  -0.028858
    135          1.584637  -0.005873
    136          1.647607  -0.000407
    137          1.747454  -0.000001
    138          1.808439  -0.000000
    139          1.928539  -0.000000
    140          1.942603  -0.000000
    141          2.017259  -0.000000
    142          2.040164  -0.000000
    143          2.084480  -0.000000
    144          2.156973  -0.000000
    145          2.273745  -0.000000
    146          2.336044  -0.000000
    147          2.363723  -0.000000
    148          2.550346  -0.000000
    149          2.740080  -0.000000