 vasp.6.3.0 20Jan22 (build Mar 25 2022 12:20:17) complex                        
  
 executed on             LinuxIFC date 2023.07.25  21:30:37
 running on   96 total cores
 distrk:  each k-point on   96 cores,    1 groups
 distr:  one band on NCORE=  16 cores,    6 groups


--------------------------------------------------------------------------------------------------------


 INCAR:
   ALGO = normal
   EDIFF = 1E-5
   KSPACING = 0.20000
   LASPH = .TRUE.
   ENCUT = 520
   ISIF = 2
   ISMEAR = 1
   LREAL = Auto
   LWAVE = False
   LCHARG = .FALSE.
   NELM = 400
   NSW = 0
   PREC = Accurate
   SIGMA = 0.1
   NPAR = 6

 POTCAR:    PAW_PBE Ta_pv 07Sep2000               
 POTCAR:    PAW_PBE Ta_pv 07Sep2000               
   SHA256 =  00d0a14a36c127416459414afb8617d9754996fffa60a2465888e660b20a452f Ta_pv/POTCAR          
   COPYR  = (c) Copyright 07Sep2000 Georg Kresse                                                    
   COPYR  = This file is part of the software VASP. Any use, copying, and all other rights are regul
   COPYR  = If you do not have a valid VASP license, you may not use, copy or distribute this file. 
   VRHFIN =Ta:  5p6s5d                                                                              
   LEXCH  = PE                                                                                      
   EATOM  =  1047.1984 eV,   76.9669 Ry                                                             
                                                                                                    
   TITEL  = PAW_PBE Ta_pv 07Sep2000                                                                 
   LULTRA =        F    use ultrasoft PP ?                                                          
   IUNSCR =        1    unscreen: 0-lin 1-nonlin 2-no                                               
   RPACOR =    2.330    partial core radius                                                         
   POMASS =  180.948; ZVAL   =   11.000    mass and valenz                                          
   RCORE  =    2.500    outmost cutoff radius                                                       
   RWIGS  =    2.840; RWIGS  =    1.503    wigner-seitz radius (au A)                               
   ENMAX  =  223.667; ENMIN  =  167.750 eV                                                          
   RCLOC  =    2.205    cutoff for local pot                                                        
   LCOR   =        T    correct aug charges                                                         
   LPAW   =        T    paw PP                                                                      
   EAUG   =  377.421                                                                                
   DEXC   =    0.000                                                                                
   RMAX   =    2.551    core radius for proj-oper                                                   
   RAUG   =    1.300    factor for augmentation sphere                                              
   RDEP   =    2.526    radius for radial grids                                                     
   RDEPT  =    2.132    core radius for aug-charge                                                  
                                                                                                    
   Atomic configuration                                                                             
   15 entries                                                                                       
     n  l   j            E        occ.                                                              
     1  0  0.50    -67341.2801   2.0000                                                             
     2  0  0.50    -11566.9369   2.0000                                                             
     2  1  1.50    -10134.1175   6.0000                                                             
     3  0  0.50     -2648.5614   2.0000                                                             
     3  1  1.50     -2222.6006   6.0000                                                             
     3  2  2.50     -1726.3114  10.0000                                                             
     4  0  0.50      -538.6957   2.0000                                                             
     4  1  1.50      -399.0125   6.0000                                                             
     4  2  2.50      -220.3955  10.0000                                                             
     4  3  3.50       -23.0371  14.0000                                                             
     5  0  0.50       -71.2900   2.0000                                                             
     5  1  1.50       -37.8224   6.0000                                                             
     5  2  2.50        -2.6455   4.0000                                                             
     6  0  0.50        -4.9623   1.0000                                                             
     5  3  2.50        -1.3606   0.0000                                                             
   Description                                                                                      
     l       E           TYP  RCUT    TYP  RCUT                                                     
     1    -37.8224449     23  2.500                                                                 
     1      1.3605826     23  2.500                                                                 
     2     -2.6454718     23  2.500                                                                 
     2     -0.6258570     23  2.500                                                                 
     0     -4.9622674     23  2.500                                                                 
     0      4.7531427     23  2.500                                                                 
  local pseudopotential read in
  partial core-charges read in
  partial kinetic energy density read in
  atomic valenz-charges read in
  non local Contribution for L=           1  read in
    real space projection operators read in
  non local Contribution for L=           1  read in
    real space projection operators read in
  non local Contribution for L=           2  read in
    real space projection operators read in
  non local Contribution for L=           2  read in
    real space projection operators read in
  non local Contribution for L=           0  read in
    real space projection operators read in
  non local Contribution for L=           0  read in
    real space projection operators read in
    PAW grid and wavefunctions read in
 
   number of l-projection  operators is LMAX  =           6
   number of lm-projection operators is LMMAX =          18
 
 Optimization of the real space projectors (new method)

 maximal supplied QI-value         = 15.12
 optimisation between [QCUT,QGAM] = [ 11.64, 23.28] = [ 37.95,151.78] Ry 
 Optimized for a Real-space Cutoff    1.58 Angstroem

   l    n(q)    QCUT    max X(q) W(low)/X(q) W(high)/X(q)  e(spline) 
   1     11    11.641     4.092    0.14E-04    0.12E-05    0.47E-07
   1     11    11.641     4.834    0.39E-04    0.18E-04    0.22E-06
   2     10    11.641    62.294    0.58E-04    0.39E-03    0.13E-05
   2     10    11.641    50.966    0.58E-04    0.39E-03    0.13E-05
   0     11    11.641   103.792    0.30E-04    0.35E-04    0.21E-06
   0     11    11.641    56.335    0.22E-04    0.32E-04    0.20E-06
  PAW_PBE Ta_pv 07Sep2000               :
 energy of atom  1       EATOM=-1047.1984
 kinetic energy error for atom=    0.0016 (will be added to EATOM!!)
 
 
 POSCAR: Ta24
  positions in cartesian coordinates
  No initial velocities read in
 exchange correlation table for  LEXCH =        8
   RHO(1)=    0.500       N(1)  =     2000
   RHO(2)=  100.500       N(2)  =     4000
 


--------------------------------------------------------------------------------------------------------


 ion  position               nearest neighbor table
   1  0.002  0.005  0.637-  13 2.77  23 2.86  14 2.87  24 2.91  21 2.92  15 2.93  22 2.98  16 2.99
                             3 3.20   3 3.25   2 3.28   2 3.39   9 3.49
   2  0.006  0.497  0.635-  23 2.82  13 2.82  14 2.83  21 2.87  24 2.90  22 2.93  15 2.98  16 2.99
                             4 3.15   1 3.28   4 3.29   1 3.39  10 3.44
   3  0.498  0.998  0.636-  22 2.83  21 2.84  15 2.84  16 2.86  13 2.89  14 2.94  24 2.95  23 2.96
                             1 3.20   1 3.25   4 3.32   4 3.34  11 3.49
   4  0.496  0.497  0.637-  21 2.78  22 2.84  16 2.85  15 2.85  13 2.89  23 2.92  14 2.92  24 2.97
                             2 3.15   2 3.29   3 3.32   3 3.34  12 3.49
   5  0.996  1.000  0.275-  17 2.82  18 2.84  20 2.92  19 2.93   7 3.19   7 3.25   6 3.31   6 3.35
                             9 3.37
   6  0.002  0.502  0.273-  18 2.81  17 2.87  20 2.92  19 2.97   8 3.21   8 3.24   5 3.31   5 3.35
                            10 3.44
   7  0.501  1.000  0.274-  19 2.83  20 2.84  18 2.91  17 2.95   5 3.19   5 3.25   8 3.31   8 3.35
                            11 3.40
   8  0.504  0.497  0.271-  20 2.83  19 2.83  18 2.95  17 3.01   6 3.21   6 3.24   7 3.31   7 3.35
                            12 3.46
   9  0.002  0.004  0.453-  17 2.84  19 2.85  21 2.87  20 2.87  22 2.91  18 2.93  23 2.96  24 2.99
                            11 3.21  11 3.23  10 3.30  10 3.37   5 3.37   1 3.49
  10  1.000  0.499  0.454-  19 2.82  22 2.84  20 2.86  21 2.88  17 2.89  24 2.91  23 2.93  18 2.96
                            12 3.20  12 3.24   9 3.30   9 3.37   2 3.44   6 3.44
  11  0.501  0.000  0.453-  18 2.82  17 2.83  24 2.86  23 2.88  19 2.89  20 2.90  22 2.95  21 2.96
                             9 3.21   9 3.23  12 3.33  12 3.34   7 3.40   3 3.49
  12  0.503  0.499  0.454-  24 2.80  17 2.84  23 2.85  19 2.86  18 2.87  20 2.90  22 2.91  21 2.95
                            10 3.20  10 3.24  11 3.33  11 3.34   8 3.46   4 3.49
  13  0.250  0.247  0.725-   1 2.77   2 2.82   4 2.89   3 2.89  15 3.20  15 3.24  14 3.32  14 3.34
                            21 3.39
  14  0.248  0.748  0.728-   2 2.83   1 2.87   4 2.92   3 2.94  16 3.21  16 3.23  13 3.32  13 3.34
                            22 3.48
  15  0.747  0.249  0.728-   3 2.84   4 2.85   1 2.93   2 2.98  13 3.20  13 3.24  16 3.33  16 3.34
                            23 3.45
  16  0.746  0.749  0.728-   4 2.85   3 2.86   1 2.99   2 2.99  14 3.21  14 3.23  15 3.33  15 3.34
                            24 3.50
  17  0.245  0.248  0.365-   5 2.82  11 2.83  12 2.84   9 2.84   6 2.87  10 2.89   7 2.95   8 3.01
                            19 3.22  19 3.22  18 3.32  18 3.35  21 3.45
  18  0.252  0.750  0.363-   6 2.81  11 2.82   5 2.84  12 2.87   7 2.91   9 2.93   8 2.95  10 2.96
                            20 3.18  20 3.26  17 3.32  17 3.35  22 3.46
  19  0.745  0.253  0.365-  10 2.82   7 2.83   8 2.83   9 2.85  12 2.86  11 2.89   5 2.93   6 2.97
                            17 3.22  17 3.22  20 3.30  20 3.37  23 3.44
  20  0.746  0.747  0.364-   8 2.83   7 2.84  10 2.86   9 2.87  12 2.90  11 2.90   5 2.92   6 2.92
                            18 3.18  18 3.26  19 3.30  19 3.37  24 3.42
  21  0.254  0.252  0.547-   4 2.78   3 2.84   9 2.87   2 2.87  10 2.88   1 2.92  12 2.95  11 2.96
                            23 3.20  23 3.25  22 3.30  22 3.37  13 3.39  17 3.45
  22  0.255  0.746  0.545-   3 2.83   4 2.84  10 2.84  12 2.91   9 2.91   2 2.93  11 2.95   1 2.98
                            24 3.17  24 3.28  21 3.30  21 3.37  18 3.46  14 3.48
  23  0.750  0.254  0.546-   2 2.82  12 2.85   1 2.86  11 2.88   4 2.92  10 2.93   9 2.96   3 2.96
                            21 3.20  21 3.25  24 3.28  24 3.38  19 3.44  15 3.45
  24  0.747  0.746  0.544-  12 2.80  11 2.86   2 2.90   1 2.91  10 2.91   3 2.95   4 2.97   9 2.99
                            22 3.17  22 3.28  23 3.28  23 3.38  20 3.42  16 3.50
 
  LATTYP: Found a triclinic cell.
 ALAT       =    19.8011759735
 B/A-ratio  =     0.3253977628
 C/A-ratio  =     0.3365365364
 COS(alpha) =     0.0022846687
 COS(beta)  =     0.0085318369
 COS(gamma) =     0.2836415886
  
  Lattice vectors:
  
 A1 = (  -5.6164370097,   0.1561091122, -18.9873072128)
 A2 = (  -6.4432583634,   0.0000000000,   0.0000000000)
 A3 = (  -0.0152246194,   6.6638017877,   0.0000000000)


Analysis of symmetry for initial positions (statically):
=====================================================================
 Subroutine PRICEL returns:
 Original cell was already a primitive cell.
 

 Routine SETGRP: Setting up the symmetry group for a 
 triclinic supercell.


 Subroutine GETGRP returns: Found  1 space group operations
 (whereof  1 operations were pure point group operations)
 out of a pool of  2 trial point group operations.


The static configuration has the point symmetry C_1 .


Analysis of symmetry for dynamics (positions and initial velocities):
=====================================================================
 Subroutine PRICEL returns:
 Original cell was already a primitive cell.
 

 Routine SETGRP: Setting up the symmetry group for a 
 triclinic supercell.


 Subroutine GETGRP returns: Found  1 space group operations
 (whereof  1 operations were pure point group operations)
 out of a pool of  2 trial point group operations.


The dynamic configuration has the point symmetry C_1 .


 Subroutine INISYM returns: Found  1 space group operations
 (whereof  1 operations are pure point group operations),
 and found     1 'primitive' translations


----------------------------------------------------------------------------------------

                                     Primitive cell                                     

  volume of cell :     815.2504

  direct lattice vectors                    reciprocal lattice vectors
     6.443258363 -0.000000000  0.000000000     0.155200978  0.000354584  0.006761298
    -0.015224619  6.663801788 -0.000000000     0.000000000  0.150064487  0.001233794
    -0.826821354 -0.156109112 18.987307213    -0.000000000  0.000000000  0.052666763

  length of vectors
     6.443258363  6.663819179 19.005942197     0.155348590  0.150069559  0.052666763

  position of ions in fractional coordinates (direct lattice)
     0.002421250  0.004964204  0.636511476
     0.006440249  0.496735699  0.635283587
     0.498411357  0.998149083  0.636414435
     0.496224503  0.496501427  0.637078264
     0.996352379  0.999597953  0.275338245
     0.001790313  0.502355012  0.273239006
     0.500913025  0.999771422  0.273782135
     0.504048120  0.496994675  0.271427835
     0.002450924  0.004371855  0.452832699
     0.999892160  0.498948168  0.454264722
     0.500749758  0.000021256  0.452616503
     0.502504145  0.499316518  0.453646866
     0.250124924  0.246923807  0.724925558
     0.247807262  0.748358687  0.727529640
     0.747487283  0.249130952  0.727619532
     0.746042926  0.748543965  0.728168228
     0.245002875  0.247722404  0.365413376
     0.251842507  0.749988603  0.362570818
     0.744596923  0.252831237  0.364953332
     0.746169435  0.747419449  0.363742665
     0.253690413  0.251713262  0.546834441
     0.255436255  0.746251802  0.544798091
     0.749868588  0.253651893  0.545963887
     0.746761364  0.746206904  0.543857202

  ion indices of the primitive-cell ions
   primitive index   ion index
                 1           1
                 2           2
                 3           3
                 4           4
                 5           5
                 6           6
                 7           7
                 8           8
                 9           9
                10          10
                11          11
                12          12
                13          13
                14          14
                15          15
                16          16
                17          17
                18          18
                19          19
                20          20
                21          21
                22          22
                23          23
                24          24

----------------------------------------------------------------------------------------

 
 -----------------------------------------------------------------------------
|                                                                             |
|           W    W    AA    RRRRR   N    N  II  N    N   GGGG   !!!           |
|           W    W   A  A   R    R  NN   N  II  NN   N  G    G  !!!           |
|           W    W  A    A  R    R  N N  N  II  N N  N  G       !!!           |
|           W WW W  AAAAAA  RRRRR   N  N N  II  N  N N  G  GGG   !            |
|           WW  WW  A    A  R   R   N   NN  II  N   NN  G    G                |
|           W    W  A    A  R    R  N    N  II  N    N   GGGG   !!!           |
|                                                                             |
|     The requested file  could not be found or opened for reading            |
|     k-point information. Automatic k-point generation is used as a          |
|     fallback, which may lead to unwanted results.                           |
|                                                                             |
 -----------------------------------------------------------------------------

 

Automatic generation of k-mesh.
 Grid dimensions derived from KSPACING:
 generate k-points for:    5    5    2

 Generating k-lattice:

  Cartesian coordinates                     Fractional coordinates (reciprocal lattice)
     0.031040196  0.000070917  0.001352260     0.200000000 -0.000000000 -0.000000000
     0.000000000  0.030012897  0.000246759     0.000000000  0.200000000 -0.000000000
    -0.000000000  0.000000000  0.026333381    -0.000000000 -0.000000000  0.500000000

  Length of vectors
     0.031069718  0.030013912  0.026333381

  Shift w.r.t. Gamma in fractional coordinates (k-lattice)
     0.000000000  0.000000000  0.000000000

 
 Subroutine IBZKPT returns following result:
 ===========================================
 
 Found     26 irreducible k-points:
 
 Following reciprocal coordinates:
            Coordinates               Weight
  0.000000  0.000000  0.000000      1.000000
  0.200000 -0.000000 -0.000000      2.000000
  0.400000 -0.000000  0.000000      2.000000
  0.000000  0.200000 -0.000000      2.000000
  0.200000  0.200000  0.000000      2.000000
  0.400000  0.200000 -0.000000      2.000000
 -0.400000  0.200000  0.000000      2.000000
 -0.200000  0.200000  0.000000      2.000000
 -0.000000  0.400000 -0.000000      2.000000
  0.200000  0.400000  0.000000      2.000000
  0.400000  0.400000 -0.000000      2.000000
 -0.400000  0.400000  0.000000      2.000000
 -0.200000  0.400000  0.000000      2.000000
 -0.000000  0.000000  0.500000      1.000000
  0.200000 -0.000000  0.500000      2.000000
  0.400000  0.000000  0.500000      2.000000
  0.000000  0.200000  0.500000      2.000000
  0.200000  0.200000  0.500000      2.000000
  0.400000  0.200000  0.500000      2.000000
 -0.400000  0.200000  0.500000      2.000000
 -0.200000  0.200000  0.500000      2.000000
  0.000000  0.400000  0.500000      2.000000
  0.200000  0.400000  0.500000      2.000000
  0.400000  0.400000  0.500000      2.000000
 -0.400000  0.400000  0.500000      2.000000
 -0.200000  0.400000  0.500000      2.000000
 
 Following cartesian coordinates:
            Coordinates               Weight
  0.000000  0.000000  0.000000      1.000000
  0.031040  0.000071  0.001352      2.000000
  0.062080  0.000142  0.002705      2.000000
  0.000000  0.030013  0.000247      2.000000
  0.031040  0.030084  0.001599      2.000000
  0.062080  0.030155  0.002951      2.000000
 -0.062080  0.029871 -0.002458      2.000000
 -0.031040  0.029942 -0.001106      2.000000
  0.000000  0.060026  0.000494      2.000000
  0.031040  0.060097  0.001846      2.000000
  0.062080  0.060168  0.003198      2.000000
 -0.062080  0.059884 -0.002211      2.000000
 -0.031040  0.059955 -0.000859      2.000000
 -0.000000  0.000000  0.026333      1.000000
  0.031040  0.000071  0.027686      2.000000
  0.062080  0.000142  0.029038      2.000000
 -0.000000  0.030013  0.026580      2.000000
  0.031040  0.030084  0.027932      2.000000
  0.062080  0.030155  0.029285      2.000000
 -0.062080  0.029871  0.023876      2.000000
 -0.031040  0.029942  0.025228      2.000000
 -0.000000  0.060026  0.026827      2.000000
  0.031040  0.060097  0.028179      2.000000
  0.062080  0.060168  0.029531      2.000000
 -0.062080  0.059884  0.024122      2.000000
 -0.031040  0.059955  0.025475      2.000000
 


--------------------------------------------------------------------------------------------------------




 Dimension of arrays:
   k-points           NKPTS =     26   k-points in BZ     NKDIM =     26   number of bands    NBANDS=    162
   number of dos      NEDOS =    301   number of ions     NIONS =     24
   non local maximal  LDIM  =      6   non local SUM 2l+1 LMDIM =     18
   total plane-waves  NPLWV = 345600
   max r-space proj   IRMAX =   7051   max aug-charges    IRDMAX=  24012
   dimension x,y,z NGX =    48 NGY =   50 NGZ =  144
   dimension x,y,z NGXF=    96 NGYF=  100 NGZF=  288
   support grid    NGXF=    96 NGYF=  100 NGZF=  288
   ions per type =              24
   NGX,Y,Z   is equivalent  to a cutoff of  12.38, 12.47, 12.60 a.u.
   NGXF,Y,Z  is equivalent  to a cutoff of  24.77, 24.95, 25.19 a.u.

 SYSTEM =  unknown system                          
 POSCAR =  Ta24                                    

 Startparameter for this run:
   NWRITE =      2    write-flag & timer
   PREC   = accura    normal or accurate (medium, high low for compatibility)
   ISTART =      0    job   : 0-new  1-cont  2-samecut
   ICHARG =      2    charge: 1-file 2-atom 10-const
   ISPIN  =      1    spin polarized calculation?
   LNONCOLLINEAR =      F non collinear calculations
   LSORBIT =      F    spin-orbit coupling
   INIWAV =      1    electr: 0-lowe 1-rand  2-diag
   LASPH  =      T    aspherical Exc in radial PAW
 Electronic Relaxation 1
   ENCUT  =  520.0 eV  38.22 Ry    6.18 a.u.  11.98 12.39 35.34*2*pi/ulx,y,z
   ENINI  =  520.0     initial cutoff
   ENAUG  =  377.4 eV  augmentation charge cutoff
   NELM   =    400;   NELMIN=  2; NELMDL= -5     # of ELM steps 
   EDIFF  = 0.1E-04   stopping-criterion for ELM
   LREAL  =      T    real-space projection
   NLSPLINE    = F    spline interpolate recip. space projectors
   LCOMPAT=      F    compatible to vasp.4.4
   GGA_COMPAT  = T    GGA compatible to vasp.4.4-vasp.4.6
   LMAXPAW     = -100 max onsite density
   LMAXMIX     =    2 max onsite mixed and CHGCAR
   VOSKOWN=      0    Vosko Wilk Nusair interpolation
   ROPT   =   -0.00025
 Ionic relaxation
   EDIFFG = 0.1E-03   stopping-criterion for IOM
   NSW    =      0    number of steps for IOM
   NBLOCK =      1;   KBLOCK =      1    inner block; outer block 
   IBRION =     -1    ionic relax: 0-MD 1-quasi-New 2-CG
   NFREE  =      0    steps in history (QN), initial steepest desc. (CG)
   ISIF   =      2    stress and relaxation
   IWAVPR =     10    prediction:  0-non 1-charg 2-wave 3-comb
   ISYM   =      2    0-nonsym 1-usesym 2-fastsym
   LCORR  =      T    Harris-Foulkes like correction to forces

   POTIM  = 0.5000    time-step for ionic-motion
   TEIN   =    0.0    initial temperature
   TEBEG  =    0.0;   TEEND  =   0.0 temperature during run
   SMASS  =  -3.00    Nose mass-parameter (am)
   estimated Nose-frequenzy (Omega)   =  0.10E-29 period in steps = 0.13E+47 mass=  -0.949E-27a.u.
   SCALEE = 1.0000    scale energy and forces
   NPACO  =    256;   APACO  = 10.0  distance and # of slots for P.C.
   PSTRESS=    0.0 pullay stress

  Mass of Ions in am
   POMASS = 180.95
  Ionic Valenz
   ZVAL   =  11.00
  Atomic Wigner-Seitz radii
   RWIGS  =  -1.00
  virtual crystal weights 
   VCA    =   1.00
   NELECT =     264.0000    total number of electrons
   NUPDOWN=      -1.0000    fix difference up-down

 DOS related values:
   EMIN   =  10.00;   EMAX   =-10.00  energy-range for DOS
   EFERMI =   0.00
   ISMEAR =     1;   SIGMA  =   0.10  broadening in eV -4-tet -1-fermi 0-gaus

 Electronic relaxation 2 (details)
   IALGO  =     38    algorithm
   LDIAG  =      T    sub-space diagonalisation (order eigenvalues)
   LSUBROT=      F    optimize rotation matrix (better conditioning)
   TURBO    =      0    0=normal 1=particle mesh
   IRESTART =      0    0=no restart 2=restart with 2 vectors
   NREBOOT  =      0    no. of reboots
   NMIN     =      0    reboot dimension
   EREF     =   0.00    reference energy to select bands
   IMIX   =      4    mixing-type and parameters
     AMIX     =   0.40;   BMIX     =  1.00
     AMIX_MAG =   1.60;   BMIX_MAG =  1.00
     AMIN     =   0.10
     WC   =   100.;   INIMIX=   1;  MIXPRE=   1;  MAXMIX= -45

 Intra band minimization:
   WEIMIN = 0.0000     energy-eigenvalue tresh-hold
   EBREAK =  0.15E-07  absolut break condition
   DEPER  =   0.30     relativ break condition  

   TIME   =   0.40     timestep for ELM

  volume/ion in A,a.u.               =      33.97       229.23
  Fermi-wavevector in a.u.,A,eV,Ry     =   1.124206  2.124441 17.195568  1.263839
  Thomas-Fermi vector in A             =   2.260876
 
 Write flags
   LWAVE        =      F    write WAVECAR
   LDOWNSAMPLE  =      F    k-point downsampling of WAVECAR
   LCHARG       =      F    write CHGCAR
   LVTOT        =      F    write LOCPOT, total local potential
   LVHAR        =      F    write LOCPOT, Hartree potential only
   LELF         =      F    write electronic localiz. function (ELF)
   LORBIT       =      0    0 simple, 1 ext, 2 COOP (PROOUT), +10 PAW based schemes


 Dipole corrections
   LMONO  =      F    monopole corrections only (constant potential shift)
   LDIPOL =      F    correct potential (dipole corrections)
   IDIPOL =      0    1-x, 2-y, 3-z, 4-all directions 
   EPSILON=  1.0000000 bulk dielectric constant

 Exchange correlation treatment:
   GGA     =    --    GGA type
   LEXCH   =     8    internal setting for exchange type
   LIBXC   =     F    Libxc                    
   VOSKOWN =     0    Vosko Wilk Nusair interpolation
   LHFCALC =     F    Hartree Fock is set to
   LHFONE  =     F    Hartree Fock one center treatment
   AEXX    =    0.0000 exact exchange contribution

 Linear response parameters
   LEPSILON=     F    determine dielectric tensor
   LRPA    =     F    only Hartree local field effects (RPA)
   LNABLA  =     F    use nabla operator in PAW spheres
   LVEL    =     F    velocity operator in full k-point grid
   CSHIFT  =0.1000    complex shift for real part using Kramers Kronig
   OMEGAMAX=  -1.0    maximum frequency
   DEG_THRESHOLD= 0.2000000E-02 threshold for treating states as degnerate
   RTIME   =   -0.100 relaxation time in fs
  (WPLASMAI=    0.000 imaginary part of plasma frequency in eV, 0.658/RTIME)
   DFIELD  = 0.0000000 0.0000000 0.0000000 field for delta impulse in time
 
  Optional k-point grid parameters
   LKPOINTS_OPT  =     F    use optional k-point grid
   KPOINTS_OPT_MODE=     1    mode for optional k-point grid
 
 Orbital magnetization related:
   ORBITALMAG=     F  switch on orbital magnetization
   LCHIMAG   =     F  perturbation theory with respect to B field
   DQ        =  0.001000  dq finite difference perturbation B field
   LLRAUG    =     F  two centre corrections for induced B field



--------------------------------------------------------------------------------------------------------


 Static calculation
 charge density and potential will be updated during run
 non-spin polarized calculation
 Variant of blocked Davidson
 Davidson routine will perform the subspace rotation
 perform sub-space diagonalisation
    after iterative eigenvector-optimisation
 modified Broyden-mixing scheme, WC =      100.0
 initial mixing is a Kerker type mixing with AMIX =  0.4000 and BMIX =      1.0000
 Hartree-type preconditioning will be used
 using additional bands           30
 real space projection scheme for non local part
 use partial core corrections
 calculate Harris-corrections to forces 
   (improved forces if not selfconsistent)
 use gradient corrections 
 use of overlap-Matrix (Vanderbilt PP)
 Methfessel and Paxton  Order N= 1 SIGMA  =   0.10


--------------------------------------------------------------------------------------------------------


  energy-cutoff  :      520.00
  volume of cell :      815.25
      direct lattice vectors                 reciprocal lattice vectors
     6.443258363 -0.000000000  0.000000000     0.155200978  0.000354584  0.006761298
    -0.015224619  6.663801788 -0.000000000     0.000000000  0.150064487  0.001233794
    -0.826821354 -0.156109112 18.987307213    -0.000000000  0.000000000  0.052666763

  length of vectors
     6.443258363  6.663819179 19.005942197     0.155348590  0.150069559  0.052666763


 
 k-points in units of 2pi/SCALE and weight: read from INCAR                         
   0.00000000  0.00000000  0.00000000       0.020
   0.03104020  0.00007092  0.00135226       0.040
   0.06208039  0.00014183  0.00270452       0.040
   0.00000000  0.03001290  0.00024676       0.040
   0.03104020  0.03008381  0.00159902       0.040
   0.06208039  0.03015473  0.00295128       0.040
  -0.06208039  0.02987106 -0.00245776       0.040
  -0.03104020  0.02994198 -0.00110550       0.040
   0.00000000  0.06002579  0.00049352       0.040
   0.03104020  0.06009671  0.00184578       0.040
   0.06208039  0.06016763  0.00319804       0.040
  -0.06208039  0.05988396 -0.00221100       0.040
  -0.03104020  0.05995488 -0.00085874       0.040
  -0.00000000  0.00000000  0.02633338       0.020
   0.03104020  0.00007092  0.02768564       0.040
   0.06208039  0.00014183  0.02903790       0.040
  -0.00000000  0.03001290  0.02658014       0.040
   0.03104020  0.03008381  0.02793240       0.040
   0.06208039  0.03015473  0.02928466       0.040
  -0.06208039  0.02987106  0.02387562       0.040
  -0.03104020  0.02994198  0.02522788       0.040
  -0.00000000  0.06002579  0.02682690       0.040
   0.03104020  0.06009671  0.02817916       0.040
   0.06208039  0.06016763  0.02953142       0.040
  -0.06208039  0.05988396  0.02412238       0.040
  -0.03104020  0.05995488  0.02547464       0.040
 
 k-points in reciprocal lattice and weights: read from INCAR                         
   0.00000000  0.00000000  0.00000000       0.020
   0.20000000 -0.00000000 -0.00000000       0.040
   0.40000000 -0.00000000  0.00000000       0.040
   0.00000000  0.20000000 -0.00000000       0.040
   0.20000000  0.20000000  0.00000000       0.040
   0.40000000  0.20000000 -0.00000000       0.040
  -0.40000000  0.20000000  0.00000000       0.040
  -0.20000000  0.20000000  0.00000000       0.040
  -0.00000000  0.40000000 -0.00000000       0.040
   0.20000000  0.40000000  0.00000000       0.040
   0.40000000  0.40000000 -0.00000000       0.040
  -0.40000000  0.40000000  0.00000000       0.040
  -0.20000000  0.40000000  0.00000000       0.040
  -0.00000000  0.00000000  0.50000000       0.020
   0.20000000 -0.00000000  0.50000000       0.040
   0.40000000  0.00000000  0.50000000       0.040
   0.00000000  0.20000000  0.50000000       0.040
   0.20000000  0.20000000  0.50000000       0.040
   0.40000000  0.20000000  0.50000000       0.040
  -0.40000000  0.20000000  0.50000000       0.040
  -0.20000000  0.20000000  0.50000000       0.040
   0.00000000  0.40000000  0.50000000       0.040
   0.20000000  0.40000000  0.50000000       0.040
   0.40000000  0.40000000  0.50000000       0.040
  -0.40000000  0.40000000  0.50000000       0.040
  -0.20000000  0.40000000  0.50000000       0.040
 
 position of ions in fractional coordinates (direct lattice) 
   0.00242125  0.00496420  0.63651148
   0.00644025  0.49673570  0.63528359
   0.49841136  0.99814908  0.63641444
   0.49622450  0.49650143  0.63707826
   0.99635238  0.99959795  0.27533825
   0.00179031  0.50235501  0.27323901
   0.50091303  0.99977142  0.27378213
   0.50404812  0.49699467  0.27142783
   0.00245092  0.00437185  0.45283270
   0.99989216  0.49894817  0.45426472
   0.50074976  0.00002126  0.45261650
   0.50250415  0.49931652  0.45364687
   0.25012492  0.24692381  0.72492556
   0.24780726  0.74835869  0.72752964
   0.74748728  0.24913095  0.72761953
   0.74604293  0.74854397  0.72816823
   0.24500287  0.24772240  0.36541338
   0.25184251  0.74998860  0.36257082
   0.74459692  0.25283124  0.36495333
   0.74616943  0.74741945  0.36374267
   0.25369041  0.25171326  0.54683444
   0.25543625  0.74625180  0.54479809
   0.74986859  0.25365189  0.54596389
   0.74676136  0.74620690  0.54385720
 
 position of ions in cartesian coordinates  (Angst):
  -0.51075612 -0.06628477 12.08563894
  -0.49133246  3.21097468 12.06232463
   2.66999566  6.55211755 12.08379640
   2.66299372  3.20913337 12.09640073
   6.17688176  6.61813981  5.22793185
  -0.22203256  3.30493913  5.18807295
   2.98592198  6.61953870  5.19838551
   3.01572338  3.26950164  5.15368368
  -0.35868637 -0.04155814  8.59807357
   6.05937146  3.25397683  8.62526383
   2.85222675 -0.07051592  8.59396859
   2.85507722  3.25652789  8.61353242
   1.00847626  1.53228382 13.76438428
   0.98375569  4.87333995 13.81382879
   4.21084940  1.54657124 13.81553560
   4.19348599  4.87447492 13.82595384
   1.27271376  1.59372864  6.93821603
   1.31148675  4.94117479  6.88424351
   4.49202988  1.62784471  6.92948103
   4.49563307  4.92387152  6.90649373
   1.17862624  1.59200145 10.38291353
   1.18402969  4.88782615 10.34424872
   4.37632070  1.60505600 10.36638406
   4.35054294  4.88767384 10.32638377
 


--------------------------------------------------------------------------------------------------------


 k-point   1 :   0.0000 0.0000 0.0000  plane waves:   21925
 k-point   2 :   0.2000-0.0000-0.0000  plane waves:   21961
 k-point   3 :   0.4000-0.0000 0.0000  plane waves:   21992
 k-point   4 :   0.0000 0.2000-0.0000  plane waves:   21928
 k-point   5 :   0.2000 0.2000 0.0000  plane waves:   21966
 k-point   6 :   0.4000 0.2000-0.0000  plane waves:   21985
 k-point   7 :  -0.4000 0.2000 0.0000  plane waves:   21979
 k-point   8 :  -0.2000 0.2000 0.0000  plane waves:   21945
 k-point   9 :  -0.0000 0.4000-0.0000  plane waves:   21926
 k-point  10 :   0.2000 0.4000 0.0000  plane waves:   21920
 k-point  11 :   0.4000 0.4000-0.0000  plane waves:   21959
 k-point  12 :  -0.4000 0.4000 0.0000  plane waves:   21948
 k-point  13 :  -0.2000 0.4000 0.0000  plane waves:   21904
 k-point  14 :  -0.0000 0.0000 0.5000  plane waves:   21938
 k-point  15 :   0.2000-0.0000 0.5000  plane waves:   21974
 k-point  16 :   0.4000 0.0000 0.5000  plane waves:   21980
 k-point  17 :   0.0000 0.2000 0.5000  plane waves:   21904
 k-point  18 :   0.2000 0.2000 0.5000  plane waves:   21967
 k-point  19 :   0.4000 0.2000 0.5000  plane waves:   21968
 k-point  20 :  -0.4000 0.2000 0.5000  plane waves:   21973
 k-point  21 :  -0.2000 0.2000 0.5000  plane waves:   21957
 k-point  22 :   0.0000 0.4000 0.5000  plane waves:   21918
 k-point  23 :   0.2000 0.4000 0.5000  plane waves:   21924
 k-point  24 :   0.4000 0.4000 0.5000  plane waves:   21966
 k-point  25 :  -0.4000 0.4000 0.5000  plane waves:   21954
 k-point  26 :  -0.2000 0.4000 0.5000  plane waves:   21920

 maximum and minimum number of plane-waves per node :      1400     1348

 maximum number of plane-waves:     21992
 maximum index in each direction: 
   IXMAX=   12   IYMAX=   12   IZMAX=   35
   IXMIN=  -12   IYMIN=  -12   IZMIN=  -35


 real space projection operators:
  total allocation   :      22951.27 KBytes
  max/ min on nodes  :       1458.00       1407.66


 parallel 3D FFT for wavefunctions:
    minimum data exchange during FFTs selected (reduces bandwidth)
 parallel 3D FFT for charge:
    minimum data exchange during FFTs selected (reduces bandwidth)


 total amount of memory used by VASP MPI-rank0    54478. kBytes
=======================================================================

   base      :      30000. kBytes
   nonlr-proj:       4614. kBytes
   fftplans  :       1668. kBytes
   grid      :       2261. kBytes
   one-center:         31. kBytes
   wavefun   :      15904. kBytes
 
     INWAV:  cpu time      0.0000: real time      0.0000
 Broyden mixing: mesh for mixing (old mesh)
   NGX = 23   NGY = 25   NGZ = 71
  (NGX  = 96   NGY  =100   NGZ  =288)
  gives a total of  40825 points

 initial charge density was supplied:
 charge density of overlapping atoms calculated
 number of electron     264.0000000 magnetization 
 keeping initial charge density in first step


--------------------------------------------------------------------------------------------------------


 Maximum index for non-local projection operator          464
 Maximum index for augmentation-charges          991 (set IRDMAX)


--------------------------------------------------------------------------------------------------------


 First call to EWALD:  gamma=   0.190
 Maximum number of real-space cells 4x 4x 2
 Maximum number of reciprocal cells 2x 2x 5

    FEWALD:  cpu time      0.0033: real time      0.0035


--------------------------------------- Iteration      1(   1)  ---------------------------------------


    POTLOK:  cpu time      0.0282: real time      0.0384
    SETDIJ:  cpu time      0.1198: real time      0.1224
     EDDAV:  cpu time      4.7809: real time      5.0289
       DOS:  cpu time      0.0054: real time      0.0082
    --------------------------------------------
      LOOP:  cpu time      4.9343: real time      5.1979

 eigenvalue-minimisations  : 10308
 total energy-change (2. order) : 0.2606215E+04  (-0.1474245E+05)
 number of electron     264.0000000 magnetization 
 augmentation part      264.0000000 magnetization 

 Free energy of the ion-electron system (eV)
  ---------------------------------------------------
  alpha Z        PSCENC =      1619.74335931
  Ewald energy   TEWEN  =     27210.97680526
  -Hartree energ DENC   =    -50313.31467600
  -exchange      EXHF   =         0.00000000
  -V(xc)+E(xc)   XCENC  =       552.66464300
  PAW double counting   =     19702.76206781   -19306.57604668
  entropy T*S    EENTRO =        -0.00306792
  eigenvalues    EBANDS =     -1992.76011344
  atomic energy  EATOM  =     25132.72213645
  Solvation  Ediel_sol  =         0.00000000
  ---------------------------------------------------
  free energy    TOTEN  =      2606.21510779 eV

  energy without entropy =     2606.21817571  energy(sigma->0) =     2606.21613043


--------------------------------------------------------------------------------------------------------




--------------------------------------- Iteration      1(   2)  ---------------------------------------


     EDDAV:  cpu time      4.4009: real time      4.4242
       DOS:  cpu time      0.0030: real time      0.0030
    --------------------------------------------
      LOOP:  cpu time      4.4039: real time      4.4272

 eigenvalue-minimisations  :  9528
 total energy-change (2. order) :-0.2765221E+04  (-0.2689766E+04)
 number of electron     264.0000000 magnetization 
 augmentation part      264.0000000 magnetization 

 Free energy of the ion-electron system (eV)
  ---------------------------------------------------
  alpha Z        PSCENC =      1619.74335931
  Ewald energy   TEWEN  =     27210.97680526
  -Hartree energ DENC   =    -50313.31467600
  -exchange      EXHF   =         0.00000000
  -V(xc)+E(xc)   XCENC  =       552.66464300
  PAW double counting   =     19702.76206781   -19306.57604668
  entropy T*S    EENTRO =         0.00288795
  eigenvalues    EBANDS =     -4757.98665720
  atomic energy  EATOM  =     25132.72213645
  Solvation  Ediel_sol  =         0.00000000
  ---------------------------------------------------
  free energy    TOTEN  =      -159.00548011 eV

  energy without entropy =     -159.00836806  energy(sigma->0) =     -159.00644276


--------------------------------------------------------------------------------------------------------




--------------------------------------- Iteration      1(   3)  ---------------------------------------


     EDDAV:  cpu time      5.0422: real time      5.0720
       DOS:  cpu time      0.0030: real time      0.0030
    --------------------------------------------
      LOOP:  cpu time      5.0452: real time      5.0750

 eigenvalue-minimisations  : 11148
 total energy-change (2. order) :-0.1342641E+03  (-0.1280259E+03)
 number of electron     264.0000000 magnetization 
 augmentation part      264.0000000 magnetization 

 Free energy of the ion-electron system (eV)
  ---------------------------------------------------
  alpha Z        PSCENC =      1619.74335931
  Ewald energy   TEWEN  =     27210.97680526
  -Hartree energ DENC   =    -50313.31467600
  -exchange      EXHF   =         0.00000000
  -V(xc)+E(xc)   XCENC  =       552.66464300
  PAW double counting   =     19702.76206781   -19306.57604668
  entropy T*S    EENTRO =         0.00189397
  eigenvalues    EBANDS =     -4892.24976603
  atomic energy  EATOM  =     25132.72213645
  Solvation  Ediel_sol  =         0.00000000
  ---------------------------------------------------
  free energy    TOTEN  =      -293.26958292 eV

  energy without entropy =     -293.27147689  energy(sigma->0) =     -293.27021424


--------------------------------------------------------------------------------------------------------




--------------------------------------- Iteration      1(   4)  ---------------------------------------


     EDDAV:  cpu time      5.0100: real time      5.0416
       DOS:  cpu time      0.0029: real time      0.0029
    --------------------------------------------
      LOOP:  cpu time      5.0128: real time      5.0445

 eigenvalue-minimisations  : 11040
 total energy-change (2. order) :-0.6007195E+01  (-0.5890269E+01)
 number of electron     264.0000000 magnetization 
 augmentation part      264.0000000 magnetization 

 Free energy of the ion-electron system (eV)
  ---------------------------------------------------
  alpha Z        PSCENC =      1619.74335931
  Ewald energy   TEWEN  =     27210.97680526
  -Hartree energ DENC   =    -50313.31467600
  -exchange      EXHF   =         0.00000000
  -V(xc)+E(xc)   XCENC  =       552.66464300
  PAW double counting   =     19702.76206781   -19306.57604668
  entropy T*S    EENTRO =         0.00192770
  eigenvalues    EBANDS =     -4898.25699453
  atomic energy  EATOM  =     25132.72213645
  Solvation  Ediel_sol  =         0.00000000
  ---------------------------------------------------
  free energy    TOTEN  =      -299.27677769 eV

  energy without entropy =     -299.27870539  energy(sigma->0) =     -299.27742026


--------------------------------------------------------------------------------------------------------




--------------------------------------- Iteration      1(   5)  ---------------------------------------


     EDDAV:  cpu time      5.1681: real time      5.2025
       DOS:  cpu time      0.0027: real time      0.0027
    CHARGE:  cpu time      0.1535: real time      0.1584
    MIXING:  cpu time      0.0040: real time      0.0074
    --------------------------------------------
      LOOP:  cpu time      5.3284: real time      5.3711

 eigenvalue-minimisations  : 11616
 total energy-change (2. order) :-0.2528338E+00  (-0.2513791E+00)
 number of electron     264.0000004 magnetization 
 augmentation part       78.8692432 magnetization 

 Broyden mixing:
  rms(total) = 0.60382E+01    rms(broyden)= 0.60382E+01
  rms(prec ) = 0.67607E+01
  weight for this iteration     100.00

 Free energy of the ion-electron system (eV)
  ---------------------------------------------------
  alpha Z        PSCENC =      1619.74335931
  Ewald energy   TEWEN  =     27210.97680526
  -Hartree energ DENC   =    -50313.31467600
  -exchange      EXHF   =         0.00000000
  -V(xc)+E(xc)   XCENC  =       552.66464300
  PAW double counting   =     19702.76206781   -19306.57604668
  entropy T*S    EENTRO =         0.00184086
  eigenvalues    EBANDS =     -4898.50974152
  atomic energy  EATOM  =     25132.72213645
  Solvation  Ediel_sol  =         0.00000000
  ---------------------------------------------------
  free energy    TOTEN  =      -299.52961151 eV

  energy without entropy =     -299.53145238  energy(sigma->0) =     -299.53022514


--------------------------------------------------------------------------------------------------------




--------------------------------------- Iteration      1(   6)  ---------------------------------------


    POTLOK:  cpu time      0.0195: real time      0.0340
    SETDIJ:  cpu time      0.1134: real time      0.1137
     EDDAV:  cpu time      5.5634: real time      5.5808
       DOS:  cpu time      0.0029: real time      0.0029
    CHARGE:  cpu time      0.1455: real time      0.1458
    MIXING:  cpu time      0.0015: real time      0.0050
    --------------------------------------------
      LOOP:  cpu time      5.8461: real time      5.8822

 eigenvalue-minimisations  : 12396
 total energy-change (2. order) :-0.5753619E+02  (-0.4408328E+02)
 number of electron     264.0000004 magnetization 
 augmentation part       80.1480756 magnetization 

 Broyden mixing:
  rms(total) = 0.46897E+01    rms(broyden)= 0.46897E+01
  rms(prec ) = 0.10307E+02
  weight for this iteration     100.00

 eigenvalues of (default mixing * dielectric matrix)
  average eigenvalue GAMMA=   0.7751
  0.7751

 Free energy of the ion-electron system (eV)
  ---------------------------------------------------
  alpha Z        PSCENC =      1619.74335931
  Ewald energy   TEWEN  =     27210.97680526
  -Hartree energ DENC   =    -50717.64013047
  -exchange      EXHF   =         0.00000000
  -V(xc)+E(xc)   XCENC  =       543.08021034
  PAW double counting   =     26121.75648115   -25756.97805791
  entropy T*S    EENTRO =        -0.01014209
  eigenvalues    EBANDS =     -4510.71645875
  atomic energy  EATOM  =     25132.72213645
  Solvation  Ediel_sol  =         0.00000000
  ---------------------------------------------------
  free energy    TOTEN  =      -357.06579671 eV

  energy without entropy =     -357.05565462  energy(sigma->0) =     -357.06241601


--------------------------------------------------------------------------------------------------------




--------------------------------------- Iteration      1(   7)  ---------------------------------------


    POTLOK:  cpu time      0.0175: real time      0.0304
    SETDIJ:  cpu time      0.1132: real time      0.1135
     EDDAV:  cpu time      5.1385: real time      5.1511
       DOS:  cpu time      0.0029: real time      0.0029
    CHARGE:  cpu time      0.1445: real time      0.1448
    MIXING:  cpu time      0.0009: real time      0.0026
    --------------------------------------------
      LOOP:  cpu time      5.4174: real time      5.4452

 eigenvalue-minimisations  : 11700
 total energy-change (2. order) : 0.6359574E+02  (-0.6483194E+02)
 number of electron     264.0000004 magnetization 
 augmentation part       80.1183821 magnetization 

 Broyden mixing:
  rms(total) = 0.33746E+01    rms(broyden)= 0.33746E+01
  rms(prec ) = 0.50321E+01
  weight for this iteration     100.00

 eigenvalues of (default mixing * dielectric matrix)
  average eigenvalue GAMMA=   1.0857
  1.9242  0.2473

 Free energy of the ion-electron system (eV)
  ---------------------------------------------------
  alpha Z        PSCENC =      1619.74335931
  Ewald energy   TEWEN  =     27210.97680526
  -Hartree energ DENC   =    -50115.86314828
  -exchange      EXHF   =         0.00000000
  -V(xc)+E(xc)   XCENC  =       542.70180518
  PAW double counting   =     26879.29836452   -26517.85884093
  entropy T*S    EENTRO =         0.00275739
  eigenvalues    EBANDS =     -5045.19330056
  atomic energy  EATOM  =     25132.72213645
  Solvation  Ediel_sol  =         0.00000000
  ---------------------------------------------------
  free energy    TOTEN  =      -293.47006165 eV

  energy without entropy =     -293.47281905  energy(sigma->0) =     -293.47098078


--------------------------------------------------------------------------------------------------------




--------------------------------------- Iteration      1(   8)  ---------------------------------------


    POTLOK:  cpu time      0.0171: real time      0.0306
    SETDIJ:  cpu time      0.1135: real time      0.1138
     EDDAV:  cpu time      5.0391: real time      5.0514
       DOS:  cpu time      0.0027: real time      0.0027
    CHARGE:  cpu time      0.1492: real time      0.1495
    MIXING:  cpu time      0.0009: real time      0.0014
    --------------------------------------------
      LOOP:  cpu time      5.3226: real time      5.3494

 eigenvalue-minimisations  : 11220
 total energy-change (2. order) : 0.1497202E+02  (-0.1215781E+02)
 number of electron     264.0000004 magnetization 
 augmentation part       81.0380478 magnetization 

 Broyden mixing:
  rms(total) = 0.15041E+01    rms(broyden)= 0.15041E+01
  rms(prec ) = 0.27517E+01
  weight for this iteration     100.00

 eigenvalues of (default mixing * dielectric matrix)
  average eigenvalue GAMMA=   0.9037
  1.9042  0.2623  0.5445

 Free energy of the ion-electron system (eV)
  ---------------------------------------------------
  alpha Z        PSCENC =      1619.74335931
  Ewald energy   TEWEN  =     27210.97680526
  -Hartree energ DENC   =    -50133.91251264
  -exchange      EXHF   =         0.00000000
  -V(xc)+E(xc)   XCENC  =       536.52542681
  PAW double counting   =     35628.87063272   -35290.38755371
  entropy T*S    EENTRO =        -0.01348364
  eigenvalues    EBANDS =     -4983.02285056
  atomic energy  EATOM  =     25132.72213645
  Solvation  Ediel_sol  =         0.00000000
  ---------------------------------------------------
  free energy    TOTEN  =      -278.49804000 eV

  energy without entropy =     -278.48455636  energy(sigma->0) =     -278.49354546


--------------------------------------------------------------------------------------------------------




--------------------------------------- Iteration      1(   9)  ---------------------------------------


    POTLOK:  cpu time      0.0192: real time      0.0333
    SETDIJ:  cpu time      0.1133: real time      0.1136
     EDDAV:  cpu time      4.9939: real time      5.0061
       DOS:  cpu time      0.0026: real time      0.0026
    CHARGE:  cpu time      0.1474: real time      0.1477
    MIXING:  cpu time      0.0006: real time      0.0006
    --------------------------------------------
      LOOP:  cpu time      5.2771: real time      5.3040

 eigenvalue-minimisations  : 11088
 total energy-change (2. order) : 0.8331880E+01  (-0.2629939E+01)
 number of electron     264.0000004 magnetization 
 augmentation part       80.8101340 magnetization 

 Broyden mixing:
  rms(total) = 0.79364E+00    rms(broyden)= 0.79363E+00
  rms(prec ) = 0.16292E+01
  weight for this iteration     100.00

 eigenvalues of (default mixing * dielectric matrix)
  average eigenvalue GAMMA=   0.8144
  1.9319  0.2530  0.5364  0.5364

 Free energy of the ion-electron system (eV)
  ---------------------------------------------------
  alpha Z        PSCENC =      1619.74335931
  Ewald energy   TEWEN  =     27210.97680526
  -Hartree energ DENC   =    -50213.49147627
  -exchange      EXHF   =         0.00000000
  -V(xc)+E(xc)   XCENC  =       536.36275051
  PAW double counting   =     35906.25182236   -35569.52587960
  entropy T*S    EENTRO =        -0.01143313
  eigenvalues    EBANDS =     -4893.19424441
  atomic energy  EATOM  =     25132.72213645
  Solvation  Ediel_sol  =         0.00000000
  ---------------------------------------------------
  free energy    TOTEN  =      -270.16615952 eV

  energy without entropy =     -270.15472639  energy(sigma->0) =     -270.16234848


--------------------------------------------------------------------------------------------------------




--------------------------------------- Iteration      1(  10)  ---------------------------------------


    POTLOK:  cpu time      0.0192: real time      0.0325
    SETDIJ:  cpu time      0.1132: real time      0.1134
     EDDAV:  cpu time      5.2430: real time      5.2690
       DOS:  cpu time      0.0028: real time      0.0027
    CHARGE:  cpu time      0.1473: real time      0.1476
    MIXING:  cpu time      0.0008: real time      0.0008
    --------------------------------------------
      LOOP:  cpu time      5.5263: real time      5.5662

 eigenvalue-minimisations  : 11844
 total energy-change (2. order) : 0.8316018E+00  (-0.5426256E+00)
 number of electron     264.0000004 magnetization 
 augmentation part       80.7841567 magnetization 

 Broyden mixing:
  rms(total) = 0.60498E+00    rms(broyden)= 0.60498E+00
  rms(prec ) = 0.12498E+01
  weight for this iteration     100.00

 eigenvalues of (default mixing * dielectric matrix)
  average eigenvalue GAMMA=   0.6950
  1.9409  0.5376  0.5376  0.2431  0.2155

 Free energy of the ion-electron system (eV)
  ---------------------------------------------------
  alpha Z        PSCENC =      1619.74335931
  Ewald energy   TEWEN  =     27210.97680526
  -Hartree energ DENC   =    -50234.12270966
  -exchange      EXHF   =         0.00000000
  -V(xc)+E(xc)   XCENC  =       536.28948278
  PAW double counting   =     35728.51231171   -35392.40085137
  entropy T*S    EENTRO =         0.00093168
  eigenvalues    EBANDS =     -4871.05602388
  atomic energy  EATOM  =     25132.72213645
  Solvation  Ediel_sol  =         0.00000000
  ---------------------------------------------------
  free energy    TOTEN  =      -269.33455772 eV

  energy without entropy =     -269.33548941  energy(sigma->0) =     -269.33486828


--------------------------------------------------------------------------------------------------------




--------------------------------------- Iteration      1(  11)  ---------------------------------------


    POTLOK:  cpu time      0.0170: real time      0.0329
    SETDIJ:  cpu time      0.1132: real time      0.1134
     EDDAV:  cpu time      5.1172: real time      5.1299
       DOS:  cpu time      0.0027: real time      0.0027
    CHARGE:  cpu time      0.1472: real time      0.1476
    MIXING:  cpu time      0.0007: real time      0.0007
    --------------------------------------------
      LOOP:  cpu time      5.3979: real time      5.4272

 eigenvalue-minimisations  : 11652
 total energy-change (2. order) : 0.8264053E+00  (-0.1857312E+00)
 number of electron     264.0000004 magnetization 
 augmentation part       80.7626358 magnetization 

 Broyden mixing:
  rms(total) = 0.42232E+00    rms(broyden)= 0.42232E+00
  rms(prec ) = 0.71292E+00
  weight for this iteration     100.00

 eigenvalues of (default mixing * dielectric matrix)
  average eigenvalue GAMMA=   0.7916
  1.9806  0.9058  0.9058  0.5486  0.2565  0.1521

 Free energy of the ion-electron system (eV)
  ---------------------------------------------------
  alpha Z        PSCENC =      1619.74335931
  Ewald energy   TEWEN  =     27210.97680526
  -Hartree energ DENC   =    -50251.65258963
  -exchange      EXHF   =         0.00000000
  -V(xc)+E(xc)   XCENC  =       536.19822594
  PAW double counting   =     35538.79191934   -35203.34669510
  entropy T*S    EENTRO =        -0.00044158
  eigenvalues    EBANDS =     -4851.94087242
  atomic energy  EATOM  =     25132.72213645
  Solvation  Ediel_sol  =         0.00000000
  ---------------------------------------------------
  free energy    TOTEN  =      -268.50815243 eV

  energy without entropy =     -268.50771086  energy(sigma->0) =     -268.50800524


--------------------------------------------------------------------------------------------------------




--------------------------------------- Iteration      1(  12)  ---------------------------------------


    POTLOK:  cpu time      0.0199: real time      0.0338
    SETDIJ:  cpu time      0.1131: real time      0.1134
     EDDAV:  cpu time      5.0480: real time      5.0604
       DOS:  cpu time      0.0025: real time      0.0025
    CHARGE:  cpu time      0.1469: real time      0.1473
    MIXING:  cpu time      0.0007: real time      0.0007
    --------------------------------------------
      LOOP:  cpu time      5.3311: real time      5.3580

 eigenvalue-minimisations  : 11352
 total energy-change (2. order) : 0.1579955E+00  (-0.4125335E-01)
 number of electron     264.0000004 magnetization 
 augmentation part       80.7918849 magnetization 

 Broyden mixing:
  rms(total) = 0.30516E+00    rms(broyden)= 0.30516E+00
  rms(prec ) = 0.51897E+00
  weight for this iteration     100.00

 eigenvalues of (default mixing * dielectric matrix)
  average eigenvalue GAMMA=   0.9195
  1.8211  1.4739  1.4739  0.6283  0.6283  0.2556  0.1551

 Free energy of the ion-electron system (eV)
  ---------------------------------------------------
  alpha Z        PSCENC =      1619.74335931
  Ewald energy   TEWEN  =     27210.97680526
  -Hartree energ DENC   =    -50257.66021477
  -exchange      EXHF   =         0.00000000
  -V(xc)+E(xc)   XCENC  =       535.96570431
  PAW double counting   =     35297.78357571   -34963.53639797
  entropy T*S    EENTRO =         0.00178097
  eigenvalues    EBANDS =     -4844.34690618
  atomic energy  EATOM  =     25132.72213645
  Solvation  Ediel_sol  =         0.00000000
  ---------------------------------------------------
  free energy    TOTEN  =      -268.35015692 eV

  energy without entropy =     -268.35193788  energy(sigma->0) =     -268.35075057


--------------------------------------------------------------------------------------------------------




--------------------------------------- Iteration      1(  13)  ---------------------------------------


    POTLOK:  cpu time      0.0181: real time      0.0315
    SETDIJ:  cpu time      0.1130: real time      0.1132
     EDDAV:  cpu time      4.8722: real time      4.8841
       DOS:  cpu time      0.0027: real time      0.0027
    CHARGE:  cpu time      0.1471: real time      0.1475
    MIXING:  cpu time      0.0008: real time      0.0008
    --------------------------------------------
      LOOP:  cpu time      5.1538: real time      5.1797

 eigenvalue-minimisations  : 11052
 total energy-change (2. order) : 0.1329882E+00  (-0.2601023E-01)
 number of electron     264.0000004 magnetization 
 augmentation part       80.7942242 magnetization 

 Broyden mixing:
  rms(total) = 0.16551E+00    rms(broyden)= 0.16551E+00
  rms(prec ) = 0.30414E+00
  weight for this iteration     100.00

 eigenvalues of (default mixing * dielectric matrix)
  average eigenvalue GAMMA=   0.9476
  2.0354  2.0354  1.1678  0.6968  0.6968  0.5376  0.2557  0.1556

 Free energy of the ion-electron system (eV)
  ---------------------------------------------------
  alpha Z        PSCENC =      1619.74335931
  Ewald energy   TEWEN  =     27210.97680526
  -Hartree energ DENC   =    -50266.75804036
  -exchange      EXHF   =         0.00000000
  -V(xc)+E(xc)   XCENC  =       535.84262004
  PAW double counting   =     34764.07803745   -34430.79611697
  entropy T*S    EENTRO =         0.00662871
  eigenvalues    EBANDS =     -4834.03259864
  atomic energy  EATOM  =     25132.72213645
  Solvation  Ediel_sol  =         0.00000000
  ---------------------------------------------------
  free energy    TOTEN  =      -268.21716874 eV

  energy without entropy =     -268.22379745  energy(sigma->0) =     -268.21937831


--------------------------------------------------------------------------------------------------------




--------------------------------------- Iteration      1(  14)  ---------------------------------------


    POTLOK:  cpu time      0.0180: real time      0.0315
    SETDIJ:  cpu time      0.1131: real time      0.1133
     EDDAV:  cpu time      4.9019: real time      4.9140
       DOS:  cpu time      0.0026: real time      0.0026
    CHARGE:  cpu time      0.1475: real time      0.1478
    MIXING:  cpu time      0.0008: real time      0.0008
    --------------------------------------------
      LOOP:  cpu time      5.1839: real time      5.2101

 eigenvalue-minimisations  : 10872
 total energy-change (2. order) : 0.7224935E-01  (-0.2116314E-01)
 number of electron     264.0000004 magnetization 
 augmentation part       80.7907153 magnetization 

 Broyden mixing:
  rms(total) = 0.65559E-01    rms(broyden)= 0.65558E-01
  rms(prec ) = 0.11633E+00
  weight for this iteration     100.00

 eigenvalues of (default mixing * dielectric matrix)
  average eigenvalue GAMMA=   0.9413
  2.1921  2.1921  1.0190  0.8431  0.8431  0.5838  0.2557  0.1556  0.3871

 Free energy of the ion-electron system (eV)
  ---------------------------------------------------
  alpha Z        PSCENC =      1619.74335931
  Ewald energy   TEWEN  =     27210.97680526
  -Hartree energ DENC   =    -50276.16062111
  -exchange      EXHF   =         0.00000000
  -V(xc)+E(xc)   XCENC  =       535.80991027
  PAW double counting   =     34454.07348719   -34121.24161053
  entropy T*S    EENTRO =         0.01097886
  eigenvalues    EBANDS =     -4824.07936509
  atomic energy  EATOM  =     25132.72213645
  Solvation  Ediel_sol  =         0.00000000
  ---------------------------------------------------
  free energy    TOTEN  =      -268.14491939 eV

  energy without entropy =     -268.15589826  energy(sigma->0) =     -268.14857902


--------------------------------------------------------------------------------------------------------




--------------------------------------- Iteration      1(  15)  ---------------------------------------


    POTLOK:  cpu time      0.0332: real time      0.0346
    SETDIJ:  cpu time      0.1134: real time      0.1137
     EDDAV:  cpu time      5.1772: real time      5.1901
       DOS:  cpu time      0.0027: real time      0.0027
    CHARGE:  cpu time      0.1473: real time      0.1477
    MIXING:  cpu time      0.0008: real time      0.0008
    --------------------------------------------
      LOOP:  cpu time      5.4747: real time      5.4896

 eigenvalue-minimisations  : 11316
 total energy-change (2. order) : 0.1115183E-01  (-0.6415435E-02)
 number of electron     264.0000004 magnetization 
 augmentation part       80.7937335 magnetization 

 Broyden mixing:
  rms(total) = 0.24020E-01    rms(broyden)= 0.24020E-01
  rms(prec ) = 0.33053E-01
  weight for this iteration     100.00

 eigenvalues of (default mixing * dielectric matrix)
  average eigenvalue GAMMA=   0.9337
  2.1933  2.1933  1.0515  1.0515  0.7537  0.7537  0.2557  0.1556  0.5367  0.3922

 Free energy of the ion-electron system (eV)
  ---------------------------------------------------
  alpha Z        PSCENC =      1619.74335931
  Ewald energy   TEWEN  =     27210.97680526
  -Hartree energ DENC   =    -50281.15732775
  -exchange      EXHF   =         0.00000000
  -V(xc)+E(xc)   XCENC  =       535.77676092
  PAW double counting   =     34398.44654333   -34065.87565108
  entropy T*S    EENTRO =         0.01233260
  eigenvalues    EBANDS =     -4818.77872662
  atomic energy  EATOM  =     25132.72213645
  Solvation  Ediel_sol  =         0.00000000
  ---------------------------------------------------
  free energy    TOTEN  =      -268.13376757 eV

  energy without entropy =     -268.14610017  energy(sigma->0) =     -268.13787844


--------------------------------------------------------------------------------------------------------




--------------------------------------- Iteration      1(  16)  ---------------------------------------


    POTLOK:  cpu time      0.0201: real time      0.0335
    SETDIJ:  cpu time      0.1131: real time      0.1134
     EDDAV:  cpu time      4.8669: real time      4.8792
       DOS:  cpu time      0.0027: real time      0.0027
    CHARGE:  cpu time      0.1471: real time      0.1474
    MIXING:  cpu time      0.0008: real time      0.0008
    --------------------------------------------
      LOOP:  cpu time      5.1508: real time      5.1771

 eigenvalue-minimisations  : 10980
 total energy-change (2. order) : 0.2787051E-03  (-0.1220252E-02)
 number of electron     264.0000004 magnetization 
 augmentation part       80.7927539 magnetization 

 Broyden mixing:
  rms(total) = 0.16879E-01    rms(broyden)= 0.16879E-01
  rms(prec ) = 0.20607E-01
  weight for this iteration     100.00

 eigenvalues of (default mixing * dielectric matrix)
  average eigenvalue GAMMA=   0.9963
  2.4947  2.0050  2.0050  1.1207  0.7757  0.7757  0.2557  0.1556  0.5344  0.4650
  0.3724

 Free energy of the ion-electron system (eV)
  ---------------------------------------------------
  alpha Z        PSCENC =      1619.74335931
  Ewald energy   TEWEN  =     27210.97680526
  -Hartree energ DENC   =    -50283.22873233
  -exchange      EXHF   =         0.00000000
  -V(xc)+E(xc)   XCENC  =       535.77954855
  PAW double counting   =     34418.52774155   -34085.98099823
  entropy T*S    EENTRO =         0.01247963
  eigenvalues    EBANDS =     -4816.68582905
  atomic energy  EATOM  =     25132.72213645
  Solvation  Ediel_sol  =         0.00000000
  ---------------------------------------------------
  free energy    TOTEN  =      -268.13348886 eV

  energy without entropy =     -268.14596849  energy(sigma->0) =     -268.13764874


--------------------------------------------------------------------------------------------------------




--------------------------------------- Iteration      1(  17)  ---------------------------------------


    POTLOK:  cpu time      0.0196: real time      0.0346
    SETDIJ:  cpu time      0.1131: real time      0.1134
     EDDAV:  cpu time      5.2134: real time      5.2366
       DOS:  cpu time      0.0028: real time      0.0028
    CHARGE:  cpu time      0.1498: real time      0.1501
    MIXING:  cpu time      0.0009: real time      0.0009
    --------------------------------------------
      LOOP:  cpu time      5.4996: real time      5.5384

 eigenvalue-minimisations  : 11280
 total energy-change (2. order) :-0.4415444E-03  (-0.4158063E-03)
 number of electron     264.0000004 magnetization 
 augmentation part       80.7901721 magnetization 

 Broyden mixing:
  rms(total) = 0.12380E-01    rms(broyden)= 0.12380E-01
  rms(prec ) = 0.21547E-01
  weight for this iteration     100.00

 eigenvalues of (default mixing * dielectric matrix)
  average eigenvalue GAMMA=   0.9834
  2.6176  1.9632  1.9632  1.2310  0.8109  0.8109  0.5991  0.5991  0.2557  0.1556
  0.4308  0.3639

 Free energy of the ion-electron system (eV)
  ---------------------------------------------------
  alpha Z        PSCENC =      1619.74335931
  Ewald energy   TEWEN  =     27210.97680526
  -Hartree energ DENC   =    -50286.41388109
  -exchange      EXHF   =         0.00000000
  -V(xc)+E(xc)   XCENC  =       535.79354904
  PAW double counting   =     34459.81060865   -34127.26273015
  entropy T*S    EENTRO =         0.01249745
  eigenvalues    EBANDS =     -4813.51627533
  atomic energy  EATOM  =     25132.72213645
  Solvation  Ediel_sol  =         0.00000000
  ---------------------------------------------------
  free energy    TOTEN  =      -268.13393041 eV

  energy without entropy =     -268.14642786  energy(sigma->0) =     -268.13809622


--------------------------------------------------------------------------------------------------------




--------------------------------------- Iteration      1(  18)  ---------------------------------------


    POTLOK:  cpu time      0.0185: real time      0.0323
    SETDIJ:  cpu time      0.1145: real time      0.1148
     EDDAV:  cpu time      4.8606: real time      4.8759
       DOS:  cpu time      0.0026: real time      0.0026
    CHARGE:  cpu time      0.1471: real time      0.1475
    MIXING:  cpu time      0.0010: real time      0.0010
    --------------------------------------------
      LOOP:  cpu time      5.1443: real time      5.1740

 eigenvalue-minimisations  : 10824
 total energy-change (2. order) : 0.8899387E-04  (-0.1161264E-03)
 number of electron     264.0000004 magnetization 
 augmentation part       80.7902266 magnetization 

 Broyden mixing:
  rms(total) = 0.92660E-02    rms(broyden)= 0.92660E-02
  rms(prec ) = 0.16154E-01
  weight for this iteration     100.00

 eigenvalues of (default mixing * dielectric matrix)
  average eigenvalue GAMMA=   0.9700
  2.5540  1.8715  1.8715  1.3717  0.9295  0.9295  0.6776  0.6776  0.2557  0.1556
  0.5371  0.4178  0.3612

 Free energy of the ion-electron system (eV)
  ---------------------------------------------------
  alpha Z        PSCENC =      1619.74335931
  Ewald energy   TEWEN  =     27210.97680526
  -Hartree energ DENC   =    -50287.13095259
  -exchange      EXHF   =         0.00000000
  -V(xc)+E(xc)   XCENC  =       535.79943007
  PAW double counting   =     34471.97333600   -34139.41567746
  entropy T*S    EENTRO =         0.01243943
  eigenvalues    EBANDS =     -4812.81471789
  atomic energy  EATOM  =     25132.72213645
  Solvation  Ediel_sol  =         0.00000000
  ---------------------------------------------------
  free energy    TOTEN  =      -268.13384141 eV

  energy without entropy =     -268.14628085  energy(sigma->0) =     -268.13798789


--------------------------------------------------------------------------------------------------------




--------------------------------------- Iteration      1(  19)  ---------------------------------------


    POTLOK:  cpu time      0.0197: real time      0.0334
    SETDIJ:  cpu time      0.1133: real time      0.1136
     EDDAV:  cpu time      4.7502: real time      4.7621
       DOS:  cpu time      0.0027: real time      0.0027
    CHARGE:  cpu time      0.1484: real time      0.1488
    MIXING:  cpu time      0.0010: real time      0.0010
    --------------------------------------------
      LOOP:  cpu time      5.0353: real time      5.0616

 eigenvalue-minimisations  : 10596
 total energy-change (2. order) : 0.7129285E-04  (-0.5785863E-04)
 number of electron     264.0000004 magnetization 
 augmentation part       80.7909545 magnetization 

 Broyden mixing:
  rms(total) = 0.53888E-02    rms(broyden)= 0.53888E-02
  rms(prec ) = 0.89288E-02
  weight for this iteration     100.00

 eigenvalues of (default mixing * dielectric matrix)
  average eigenvalue GAMMA=   0.9853
  2.2611  2.2611  1.8421  1.5183  1.2679  0.8612  0.8612  0.6926  0.1556  0.2557
  0.5645  0.4894  0.4020  0.3622

 Free energy of the ion-electron system (eV)
  ---------------------------------------------------
  alpha Z        PSCENC =      1619.74335931
  Ewald energy   TEWEN  =     27210.97680526
  -Hartree energ DENC   =    -50287.15921763
  -exchange      EXHF   =         0.00000000
  -V(xc)+E(xc)   XCENC  =       535.80037578
  PAW double counting   =     34476.14543980   -34143.58206257
  entropy T*S    EENTRO =         0.01239864
  eigenvalues    EBANDS =     -4812.79300516
  atomic energy  EATOM  =     25132.72213645
  Solvation  Ediel_sol  =         0.00000000
  ---------------------------------------------------
  free energy    TOTEN  =      -268.13377012 eV

  energy without entropy =     -268.14616876  energy(sigma->0) =     -268.13790300


--------------------------------------------------------------------------------------------------------




--------------------------------------- Iteration      1(  20)  ---------------------------------------


    POTLOK:  cpu time      0.0211: real time      0.0330
    SETDIJ:  cpu time      0.1131: real time      0.1134
     EDDAV:  cpu time      4.7525: real time      4.7642
       DOS:  cpu time      0.0026: real time      0.0027
    CHARGE:  cpu time      0.1471: real time      0.1475
    MIXING:  cpu time      0.0009: real time      0.0009
    --------------------------------------------
      LOOP:  cpu time      5.0375: real time      5.0616

 eigenvalue-minimisations  : 10368
 total energy-change (2. order) :-0.1571968E-03  (-0.4789028E-04)
 number of electron     264.0000004 magnetization 
 augmentation part       80.7915035 magnetization 

 Broyden mixing:
  rms(total) = 0.25248E-02    rms(broyden)= 0.25248E-02
  rms(prec ) = 0.44759E-02
  weight for this iteration     100.00

 eigenvalues of (default mixing * dielectric matrix)
  average eigenvalue GAMMA=   1.0281
  2.7107  2.7107  1.8799  1.4342  1.4342  0.8449  0.8449  0.6919  0.6919  0.1556
  0.2557  0.5647  0.4347  0.4069  0.3609

 Free energy of the ion-electron system (eV)
  ---------------------------------------------------
  alpha Z        PSCENC =      1619.74335931
  Ewald energy   TEWEN  =     27210.97680526
  -Hartree energ DENC   =    -50287.74117454
  -exchange      EXHF   =         0.00000000
  -V(xc)+E(xc)   XCENC  =       535.80361789
  PAW double counting   =     34485.72688741   -34153.15420675
  entropy T*S    EENTRO =         0.01234458
  eigenvalues    EBANDS =     -4812.22369693
  atomic energy  EATOM  =     25132.72213645
  Solvation  Ediel_sol  =         0.00000000
  ---------------------------------------------------
  free energy    TOTEN  =      -268.13392732 eV

  energy without entropy =     -268.14627189  energy(sigma->0) =     -268.13804218


--------------------------------------------------------------------------------------------------------




--------------------------------------- Iteration      1(  21)  ---------------------------------------


    POTLOK:  cpu time      0.0195: real time      0.0324
    SETDIJ:  cpu time      0.1131: real time      0.1134
     EDDAV:  cpu time      4.2665: real time      4.2869
       DOS:  cpu time      0.0025: real time      0.0025
    CHARGE:  cpu time      0.1471: real time      0.1475
    MIXING:  cpu time      0.0010: real time      0.0010
    --------------------------------------------
      LOOP:  cpu time      4.5499: real time      4.5838

 eigenvalue-minimisations  :  9144
 total energy-change (2. order) :-0.1787240E-03  (-0.2342135E-04)
 number of electron     264.0000004 magnetization 
 augmentation part       80.7914034 magnetization 

 Broyden mixing:
  rms(total) = 0.28108E-02    rms(broyden)= 0.28108E-02
  rms(prec ) = 0.52209E-02
  weight for this iteration     100.00

 eigenvalues of (default mixing * dielectric matrix)
  average eigenvalue GAMMA=   1.0466
  2.9006  2.9006  1.8596  1.5466  1.5466  0.8883  0.8883  0.7710  0.7710  0.1556
  0.2557  0.5763  0.5277  0.4130  0.3609  0.3845

 Free energy of the ion-electron system (eV)
  ---------------------------------------------------
  alpha Z        PSCENC =      1619.74335931
  Ewald energy   TEWEN  =     27210.97680526
  -Hartree energ DENC   =    -50288.65756025
  -exchange      EXHF   =         0.00000000
  -V(xc)+E(xc)   XCENC  =       535.80830542
  PAW double counting   =     34494.36869629   -34161.78486591
  entropy T*S    EENTRO =         0.01228805
  eigenvalues    EBANDS =     -4811.32327067
  atomic energy  EATOM  =     25132.72213645
  Solvation  Ediel_sol  =         0.00000000
  ---------------------------------------------------
  free energy    TOTEN  =      -268.13410604 eV

  energy without entropy =     -268.14639409  energy(sigma->0) =     -268.13820206


--------------------------------------------------------------------------------------------------------




--------------------------------------- Iteration      1(  22)  ---------------------------------------


    POTLOK:  cpu time      0.0193: real time      0.0337
    SETDIJ:  cpu time      0.1127: real time      0.1133
     EDDAV:  cpu time      3.7068: real time      3.7385
       DOS:  cpu time      0.0026: real time      0.0026
    CHARGE:  cpu time      0.1459: real time      0.1470
    MIXING:  cpu time      0.0010: real time      0.0010
    --------------------------------------------
      LOOP:  cpu time      3.9882: real time      4.0360

 eigenvalue-minimisations  :  7584
 total energy-change (2. order) :-0.6084619E-04  (-0.6881865E-05)
 number of electron     264.0000004 magnetization 
 augmentation part       80.7912192 magnetization 

 Broyden mixing:
  rms(total) = 0.21048E-02    rms(broyden)= 0.21048E-02
  rms(prec ) = 0.32229E-02
  weight for this iteration     100.00

 eigenvalues of (default mixing * dielectric matrix)
  average eigenvalue GAMMA=   1.0466
  2.9063  2.9063  1.8224  1.6857  1.6857  0.8967  0.8967  0.8629  0.7249  0.7249
  0.1556  0.2557  0.5993  0.5074  0.4193  0.3619  0.3801

 Free energy of the ion-electron system (eV)
  ---------------------------------------------------
  alpha Z        PSCENC =      1619.74335931
  Ewald energy   TEWEN  =     27210.97680526
  -Hartree energ DENC   =    -50289.37277028
  -exchange      EXHF   =         0.00000000
  -V(xc)+E(xc)   XCENC  =       535.81040853
  PAW double counting   =     34493.91280321   -34161.32716866
  entropy T*S    EENTRO =         0.01227862
  eigenvalues    EBANDS =     -4810.61201932
  atomic energy  EATOM  =     25132.72213645
  Solvation  Ediel_sol  =         0.00000000
  ---------------------------------------------------
  free energy    TOTEN  =      -268.13416689 eV

  energy without entropy =     -268.14644551  energy(sigma->0) =     -268.13825976


--------------------------------------------------------------------------------------------------------




--------------------------------------- Iteration      1(  23)  ---------------------------------------


    POTLOK:  cpu time      0.0195: real time      0.0340
    SETDIJ:  cpu time      0.1130: real time      0.1133
     EDDAV:  cpu time      3.9651: real time      3.9748
       DOS:  cpu time      0.0026: real time      0.0026
    CHARGE:  cpu time      0.1470: real time      0.1474
    MIXING:  cpu time      0.0011: real time      0.0011
    --------------------------------------------
      LOOP:  cpu time      4.2483: real time      4.2731

 eigenvalue-minimisations  :  8244
 total energy-change (2. order) :-0.2352663E-04  (-0.4432331E-05)
 number of electron     264.0000004 magnetization 
 augmentation part       80.7912384 magnetization 

 Broyden mixing:
  rms(total) = 0.11549E-02    rms(broyden)= 0.11549E-02
  rms(prec ) = 0.16142E-02
  weight for this iteration     100.00

 eigenvalues of (default mixing * dielectric matrix)
  average eigenvalue GAMMA=   1.0879
  3.4428  2.7470  1.9701  1.9701  1.5893  1.1998  0.9178  0.9178  0.8328  0.8328
  0.1556  0.2557  0.5867  0.5145  0.4926  0.4137  0.3611  0.3821

 Free energy of the ion-electron system (eV)
  ---------------------------------------------------
  alpha Z        PSCENC =      1619.74335931
  Ewald energy   TEWEN  =     27210.97680526
  -Hartree energ DENC   =    -50289.68497166
  -exchange      EXHF   =         0.00000000
  -V(xc)+E(xc)   XCENC  =       535.81022963
  PAW double counting   =     34490.03449123   -34157.45344615
  entropy T*S    EENTRO =         0.01228926
  eigenvalues    EBANDS =     -4810.29508374
  atomic energy  EATOM  =     25132.72213645
  Solvation  Ediel_sol  =         0.00000000
  ---------------------------------------------------
  free energy    TOTEN  =      -268.13419041 eV

  energy without entropy =     -268.14647967  energy(sigma->0) =     -268.13828683


--------------------------------------------------------------------------------------------------------




--------------------------------------- Iteration      1(  24)  ---------------------------------------


    POTLOK:  cpu time      0.0181: real time      0.0316
    SETDIJ:  cpu time      0.1128: real time      0.1131
     EDDAV:  cpu time      3.7812: real time      3.7919
       DOS:  cpu time      0.0027: real time      0.0027
    CHARGE:  cpu time      0.1515: real time      0.1519
    MIXING:  cpu time      0.0011: real time      0.0011
    --------------------------------------------
      LOOP:  cpu time      4.0675: real time      4.0922

 eigenvalue-minimisations  :  7176
 total energy-change (2. order) :-0.1790123E-04  (-0.3341189E-05)
 number of electron     264.0000004 magnetization 
[...]
    152       2.2652     -0.00000
    153       2.7266     -0.00000
    154       2.8343     -0.00000
    155       2.8886     -0.00000
    156       3.0099     -0.00000
    157       3.1771     -0.00000
    158       3.2003     -0.00000
    159       3.3077     -0.00000
    160       3.3514     -0.00000
    161       3.9321     -0.00000
    162       3.9520     -0.00000

 k-point    26 :      -0.2000    0.4000    0.5000
  band No.  band energies     occupation 
      1     -33.5484      2.00000
      2     -33.5415      2.00000
      3     -33.5349      2.00000
      4     -33.5308      2.00000
      5     -33.5271      2.00000
      6     -33.5241      2.00000
      7     -33.5198      2.00000
      8     -33.5075      2.00000
      9     -33.5071      2.00000
     10     -33.4987      2.00000
     11     -33.4811      2.00000
     12     -33.4805      2.00000
     13     -33.4702      2.00000
     14     -33.4659      2.00000
     15     -33.4181      2.00000
     16     -33.4172      2.00000
     17     -33.4028      2.00000
     18     -33.4022      2.00000
     19     -33.3549      2.00000
     20     -33.3354      2.00000
     21     -33.3136      2.00000
     22     -33.3062      2.00000
     23     -33.2810      2.00000
     24     -33.2658      2.00000
     25     -32.8461      2.00000
     26     -32.8342      2.00000
     27     -32.8105      2.00000
     28     -32.7968      2.00000
     29     -32.7889      2.00000
     30     -32.7838      2.00000
     31     -32.7600      2.00000
     32     -32.7440      2.00000
     33     -32.7327      2.00000
     34     -32.7064      2.00000
     35     -32.6789      2.00000
     36     -32.6683      2.00000
     37     -32.6170      2.00000
     38     -32.6026      2.00000
     39     -32.5699      2.00000
     40     -32.5439      2.00000
     41     -32.5290      2.00000
     42     -32.4831      2.00000
     43     -32.4715      2.00000
     44     -32.4482      2.00000
     45     -32.4403      2.00000
     46     -32.4321      2.00000
     47     -32.4192      2.00000
     48     -32.4155      2.00000
     49     -32.3913      2.00000
     50     -32.3573      2.00000
     51     -32.3339      2.00000
     52     -32.3241      2.00000
     53     -32.3036      2.00000
     54     -32.2920      2.00000
     55     -32.2541      2.00000
     56     -32.2405      2.00000
     57     -32.2324      2.00000
     58     -32.2156      2.00000
     59     -32.1957      2.00000
     60     -32.1893      2.00000
     61     -32.1689      2.00000
     62     -32.1262      2.00000
     63     -32.1074      2.00000
     64     -32.0943      2.00000
     65     -32.0752      2.00000
     66     -32.0521      2.00000
     67     -32.0323      2.00000
     68     -32.0249      2.00000
     69     -32.0168      2.00000
     70     -31.9995      2.00000
     71     -31.9884      2.00000
     72     -31.9631      2.00000
     73      -5.2010      2.00000
     74      -4.3578      2.00000
     75      -4.3232      2.00000
     76      -3.6675      2.00000
     77      -3.1005      2.00000
     78      -2.9301      2.00000
     79      -2.7953      2.00000
     80      -2.7456      2.00000
     81      -2.4265      2.00000
     82      -2.0772      2.00000
     83      -2.0179      2.00000
     84      -1.9903      2.00000
     85      -1.9067      2.00000
     86      -1.8523      2.00000
     87      -1.6454      2.00000
     88      -1.6301      2.00000
     89      -1.6079      2.00000
     90      -1.5232      2.00000
     91      -1.5000      2.00000
     92      -1.4023      2.00000
     93      -1.3609      2.00000
     94      -1.3020      2.00000
     95      -1.2700      2.00000
     96      -1.0849      2.00000
     97      -1.0255      2.00000
     98      -1.0011      2.00000
     99      -0.9477      2.00000
    100      -0.5634      2.00000
    101      -0.5146      2.00000
    102      -0.4841      2.00000
    103      -0.3628      2.00000
    104      -0.2910      2.00000
    105      -0.2655      2.00000
    106      -0.2251      2.00000
    107      -0.1808      2.00000
    108      -0.1665      2.00000
    109      -0.1169      2.00000
    110      -0.0347      2.00000
    111       0.1506      2.00000
    112       0.1726      2.00000
    113       0.3177      2.00000
    114       0.3646      2.00000
    115       0.3995      2.00000
    116       0.4047      2.00000
    117       0.4679      2.00000
    118       0.5002      2.00000
    119       0.5612      2.00000
    120       0.6058      2.00000
    121       0.6654      2.00000
    122       0.7011      2.00000
    123       0.7141      2.00000
    124       0.7376      2.00000
    125       0.7922      2.00000
    126       0.8362      2.00000
    127       0.8577      2.00000
    128       0.9352      2.00000
    129       0.9512      2.00000
    130       1.0058      2.00000
    131       1.0557      2.00006
    132       1.2041      2.03594
    133       1.2715      2.05756
    134       1.4129      0.41223
    135       1.4486      0.05946
    136       1.6437     -0.00099
    137       1.7057     -0.00003
    138       1.7723     -0.00000
    139       1.8031     -0.00000
    140       1.8711     -0.00000
    141       1.9215     -0.00000
    142       1.9624     -0.00000
    143       1.9817     -0.00000
    144       1.9962     -0.00000
    145       2.0419     -0.00000
    146       2.0942     -0.00000
    147       2.1475     -0.00000
    148       2.2120     -0.00000
    149       2.3663     -0.00000
    150       2.4314     -0.00000
    151       2.5443     -0.00000
    152       2.5927     -0.00000
    153       2.7254     -0.00000
    154       2.8553     -0.00000
    155       3.1395     -0.00000
    156       3.2310     -0.00000
    157       3.3757     -0.00000
    158       3.3982     -0.00000
    159       3.5320     -0.00000
    160       3.5871     -0.00000
    161       3.7102     -0.00000
    162       3.7807     -0.00000


--------------------------------------------------------------------------------------------------------


 soft charge-density along one line, spin component           1
         0         1         2         3         4         5         6         7         8         9
 total charge-density along one line
 
 pseudopotential strength for first ion, spin component:           1
-33.706   0.002   0.002   9.332  -0.002  -0.002   0.000   0.007
  0.002 -33.701   0.011  -0.002   9.326  -0.009  -0.000  -0.001
  0.002   0.011 -33.706  -0.002  -0.009   9.333  -0.000  -0.000
  9.332  -0.002  -0.002   5.545   0.001   0.001   0.001  -0.005
 -0.002   9.326  -0.009   0.001   5.548   0.005   0.000   0.003
 -0.002  -0.009   9.333   0.001   0.005   5.544   0.002   0.000
  0.000  -0.000  -0.000   0.001   0.000   0.002  -7.225   0.002
  0.007  -0.001  -0.000  -0.005   0.003   0.000   0.002  -7.224
 -0.001   0.005  -0.001  -0.000  -0.003   0.000  -0.000   0.000
 -0.000   0.001   0.007   0.000   0.001  -0.005   0.001   0.000
 -0.001   0.000   0.001  -0.001  -0.000  -0.000   0.000  -0.000
  0.000  -0.001  -0.001   0.001   0.001   0.003  -8.832   0.003
  0.008  -0.001  -0.001  -0.006   0.003   0.001   0.003  -8.831
 -0.001   0.007  -0.001  -0.001  -0.004  -0.000  -0.000   0.000
 -0.001   0.001   0.008   0.001   0.001  -0.006   0.001   0.000
 -0.002   0.000   0.002  -0.001  -0.000  -0.000   0.000  -0.000
  0.004  -0.006   0.002  -0.001   0.003  -0.001  -0.001  -0.001
  0.008  -0.011   0.004  -0.002   0.006  -0.002  -0.001  -0.002
 total augmentation occupancy for first ion, spin component:           1
  1.994   0.000   0.000  -0.020   0.000   0.000   0.006   0.010  -0.002   0.001  -0.004  -0.005  -0.008   0.002  -0.001   0.004
  0.000   1.994   0.000   0.000  -0.018   0.002   0.002   0.011   0.009   0.006  -0.000  -0.001  -0.008  -0.007  -0.005   0.000
  0.000   0.000   1.994   0.000   0.002  -0.020   0.010   0.001  -0.001   0.009   0.003  -0.008  -0.001   0.001  -0.008  -0.003
 -0.020   0.000   0.000   0.152  -0.002   0.000   0.026  -0.002  -0.019  -0.002  -0.030  -0.014  -0.009   0.011   0.001   0.018
  0.000  -0.018   0.002  -0.002   0.142  -0.002  -0.004   0.029  -0.025   0.024   0.003   0.002  -0.015   0.014  -0.014  -0.002
  0.000   0.002  -0.020   0.000  -0.002   0.160   0.031   0.000  -0.014   0.005   0.014  -0.016   0.000   0.007  -0.013  -0.009
  0.006   0.002   0.010   0.026  -0.004   0.031   5.037   0.293  -0.036   0.078   0.006  -2.594  -0.135   0.022  -0.034  -0.003
  0.010   0.011   0.001  -0.002   0.029   0.000   0.293   5.385   0.024   0.034   0.004  -0.135  -2.732  -0.012  -0.016   0.004
 -0.002   0.009  -0.001  -0.019  -0.025  -0.014  -0.036   0.024   4.313   0.127  -0.067   0.022  -0.012  -2.308  -0.065   0.030
  0.001   0.006   0.009  -0.002   0.024   0.005   0.078   0.034   0.127   5.167   0.078  -0.034  -0.016  -0.066  -2.646  -0.066
 -0.004  -0.000   0.003  -0.030   0.003   0.014   0.006   0.004  -0.067   0.078   4.627  -0.003   0.004   0.030  -0.065  -2.523
 -0.005  -0.001  -0.008  -0.014   0.002  -0.016  -2.594  -0.135   0.022  -0.034  -0.003   1.365   0.066  -0.013   0.016   0.001
 -0.008  -0.008  -0.001  -0.009  -0.015   0.000  -0.135  -2.732  -0.012  -0.016   0.004   0.066   1.418   0.006   0.008  -0.005
  0.002  -0.007   0.001   0.011   0.014   0.007   0.022  -0.012  -2.308  -0.066   0.030  -0.013   0.006   1.245   0.035  -0.014
 -0.001  -0.005  -0.008   0.001  -0.014  -0.013  -0.034  -0.016  -0.065  -2.646  -0.065   0.016   0.008   0.035   1.384   0.046
  0.004   0.000  -0.003   0.018  -0.002  -0.009  -0.003   0.004   0.030  -0.066  -2.523   0.001  -0.005  -0.014   0.046   1.388
 -0.004   0.021   0.004   0.021   0.015   0.011   0.029   0.030  -0.061   0.186   0.038  -0.015  -0.016   0.051  -0.098  -0.022
  0.002  -0.011  -0.002  -0.002   0.000  -0.001  -0.006  -0.007   0.011  -0.036  -0.005   0.003   0.003  -0.008   0.019   0.003


------------------------ aborting loop because EDIFF is reached ----------------------------------------


    CHARGE:  cpu time      0.1478: real time      0.1481
    FORLOC:  cpu time      0.0032: real time      0.0041
    FORNL :  cpu time      0.8004: real time      0.8039
    STRESS:  cpu time      2.4081: real time      2.4185
    FORCOR:  cpu time      0.0174: real time      0.0192
    FORHAR:  cpu time      0.0061: real time      0.0081
    MIXING:  cpu time      0.0012: real time      0.0012
    OFIELD:  cpu time      0.0009: real time      0.0019

  FORCE on cell =-STRESS in cart. coord.  units (eV):
  Direction    XX          YY          ZZ          XY          YZ          ZX
  --------------------------------------------------------------------------------------
  Alpha Z  1619.74336  1619.74336  1619.74336
  Ewald   42077.19422 41956.92123-56823.20039    11.01334    44.74381   187.50613
  Hartree 48332.40836 48277.70023-46319.36629     3.75492    17.31532    72.95182
  E(xc)   -1114.57835 -1114.73335 -1116.65504    -0.02917    -0.06714    -0.29083
  Local  -93372.22430-93199.55963100201.79895   -14.43248   -61.27268  -257.70127
  n-local -1179.60741 -1186.43352 -1202.64835    -0.44013    -0.45249    -1.74988
  augment   521.38666   522.21457   518.59652     0.04623     0.07455     0.43116
  Kinetic  3089.81663  3093.75523  3095.88838     0.40370     0.69949     3.32285
  Fock        0.00000     0.00000     0.00000     0.00000     0.00000     0.00000
  -------------------------------------------------------------------------------------
  Total     -25.86083   -30.39187   -25.84287     0.31640     1.04086     4.46998
  in kB     -50.82320   -59.72787   -50.78792     0.62181     2.04556     8.78466
  external pressure =      -53.78 kB  Pullay stress =        0.00 kB


 VOLUME and BASIS-vectors are now :
 -----------------------------------------------------------------------------
  energy-cutoff  :      520.00
  volume of cell :      815.25
      direct lattice vectors                 reciprocal lattice vectors
     6.443258363 -0.000000000  0.000000000     0.155200978  0.000354584  0.006761298
    -0.015224619  6.663801788 -0.000000000     0.000000000  0.150064487  0.001233794
    -0.826821354 -0.156109112 18.987307213    -0.000000000  0.000000000  0.052666763

  length of vectors
     6.443258363  6.663819179 19.005942197     0.155348590  0.150069559  0.052666763


 FORCES acting on ions
    electron-ion (+dipol)            ewald-force                    non-local-force                 convergence-correction
 -----------------------------------------------------------------------------------------------
   0.211E+02 0.307E+02 -.139E+04   -.211E+02 -.311E+02 0.139E+04   -.928E-01 -.181E+00 0.925E+00   -.665E-03 0.530E-02 0.111E-01
   0.276E+02 -.257E+02 -.140E+04   -.277E+02 0.260E+02 0.140E+04   -.342E+00 0.116E+00 0.997E+00   -.957E-03 -.499E-02 0.977E-02
   -.166E+02 0.138E+02 -.139E+04   0.170E+02 -.139E+02 0.139E+04   0.928E-01 0.158E-01 0.829E+00   0.105E-02 0.432E-02 0.110E-01
   -.225E+02 -.165E+02 -.141E+04   0.230E+02 0.168E+02 0.141E+04   0.228E+00 0.108E-01 0.664E+00   0.111E-02 -.420E-02 0.103E-01
   0.233E+01 -.383E+01 0.223E+04   -.267E+01 0.363E+01 -.222E+04   0.291E+00 0.197E+00 -.661E+01   0.361E-03 0.586E-03 -.868E-02
   0.381E+00 0.772E+01 0.223E+04   -.712E+00 -.771E+01 -.222E+04   0.238E+00 -.842E-01 -.662E+01   0.439E-03 -.617E-03 -.769E-02
   0.111E+02 -.265E+01 0.223E+04   -.112E+02 0.273E+01 -.222E+04   0.463E-01 -.503E-01 -.663E+01   -.225E-03 0.737E-03 -.839E-02
   0.153E+02 0.413E+01 0.224E+04   -.157E+02 -.421E+01 -.223E+04   0.182E+00 0.591E-01 -.672E+01   -.536E-03 -.904E-03 -.787E-02
   0.626E+01 0.184E+02 0.451E+03   -.639E+01 -.186E+02 -.451E+03   -.491E-01 -.153E+00 -.387E+00   0.762E-03 0.258E-02 0.276E-02
   -.725E+01 -.132E+02 0.459E+03   0.730E+01 0.132E+02 -.458E+03   0.101E+00 0.177E+00 -.542E+00   0.736E-03 -.261E-02 0.537E-02
   -.177E+01 0.167E+01 0.459E+03   0.174E+01 -.164E+01 -.458E+03   0.486E-01 -.618E-01 -.446E+00   -.559E-03 0.249E-02 0.188E-02
   0.120E+02 -.730E+00 0.468E+03   -.123E+02 0.643E+00 -.467E+03   0.295E-01 0.656E-01 -.429E+00   -.519E-03 -.261E-02 0.404E-02
   -.194E+00 -.582E+00 -.223E+04   0.562E+00 0.618E+00 0.223E+04   -.326E+00 -.296E-01 0.645E+01   -.331E-02 0.157E-02 0.489E-02
   0.393E+01 -.340E+01 -.222E+04   -.368E+01 0.358E+01 0.222E+04   -.251E+00 -.118E+00 0.666E+01   -.304E-02 -.152E-02 0.615E-02
   -.134E+02 -.179E+01 -.222E+04   0.136E+02 0.181E+01 0.222E+04   -.100E+00 -.492E-01 0.666E+01   0.286E-02 0.141E-02 0.603E-02
   -.176E+02 -.939E+00 -.221E+04   0.179E+02 0.961E+00 0.220E+04   -.152E+00 0.355E-02 0.664E+01   0.302E-02 -.149E-02 0.639E-02
   -.614E+01 -.118E+02 0.140E+04   0.614E+01 0.120E+02 -.140E+04   0.127E+00 0.144E-01 -.104E+01   -.257E-03 -.101E-02 -.144E-02
   0.520E+01 0.817E+01 0.141E+04   -.549E+01 -.833E+01 -.141E+04   -.127E+00 0.246E-01 -.896E+00   -.505E-03 0.139E-02 -.293E-02
   -.735E+01 0.261E+01 0.139E+04   0.733E+01 -.268E+01 -.139E+04   0.178E+00 -.181E+00 -.908E+00   0.371E-03 -.109E-02 -.146E-02
   -.123E+02 -.325E+01 0.139E+04   0.124E+02 0.327E+01 -.139E+04   0.140E+00 0.186E+00 -.997E+00   0.557E-03 0.136E-02 -.288E-02
   0.298E+01 0.165E+02 -.463E+03   -.316E+01 -.167E+02 0.463E+03   -.113E+00 -.725E-01 0.577E+00   -.270E-02 0.335E-02 0.757E-02
   0.183E+02 -.183E+02 -.459E+03   -.185E+02 0.185E+02 0.459E+03   -.295E+00 0.118E+00 0.617E+00   -.234E-02 -.358E-02 0.589E-02
   -.206E+01 0.191E+02 -.476E+03   0.207E+01 -.193E+02 0.476E+03   0.160E-01 -.189E+00 0.634E+00   0.235E-02 0.341E-02 0.794E-02
   -.193E+02 -.200E+02 -.472E+03   0.196E+02 0.203E+02 0.473E+03   0.110E+00 0.153E+00 0.540E+00   0.212E-02 -.358E-02 0.708E-02
 -----------------------------------------------------------------------------------------------
   0.208E-01 0.253E-01 -.368E-01   0.135E-12 -.142E-13 -.909E-12   -.176E-01 -.284E-01 -.319E-01   0.120E-03 0.325E-03 0.667E-01
 
 
 POSITION                                       TOTAL-FORCE (eV/Angst)
 -----------------------------------------------------------------------------------
     -0.51076     -0.06628     12.08564        -0.109242     -0.550477      0.657002
     -0.49133      3.21097     12.06232        -0.407258      0.416810      1.008076
      2.67000      6.55212     12.08380         0.451285     -0.012298      0.885507
      2.66299      3.20913     12.09640         0.715368      0.276882      0.853739
      6.17688      6.61814      5.22793        -0.049552     -0.002670      1.188015
     -0.22203      3.30494      5.18807        -0.092488     -0.076436      1.373077
      2.98592      6.61954      5.19839        -0.100054      0.029005      1.324520
      3.01572      3.26950      5.15368        -0.170153     -0.020511      1.490801
     -0.35869     -0.04156      8.59807        -0.180655     -0.379111     -0.048094
      6.05937      3.25398      8.62526         0.152398      0.191542     -0.292126
      2.85223     -0.07052      8.59397         0.017495     -0.029471      0.000209
      2.85508      3.25653      8.61353        -0.242224     -0.024425     -0.258420
      1.00848      1.53228     13.76438         0.039324      0.007910     -1.017273
      0.98376      4.87334     13.81383        -0.006542      0.052603     -1.437927
      4.21085      1.54657     13.81554         0.110255     -0.018476     -1.505373
      4.19349      4.87447     13.82595         0.131085      0.024063     -1.506830
      1.27271      1.59373      6.93822         0.123488      0.230721     -1.242113
      1.31149      4.94117      6.88424        -0.413314     -0.130012     -0.765140
      4.49203      1.62784      6.92948         0.162461     -0.253199     -1.126198
      4.49563      4.92387      6.90649         0.183795      0.209498     -0.966133
      1.17863      1.59200     10.38291        -0.292177     -0.293565      0.038765
      1.18403      4.88783     10.34425        -0.466902      0.325891      0.359905
      4.37632      1.60506     10.36638         0.034037     -0.334969      0.327382
      4.35054      4.88767     10.32638         0.409570      0.360697      0.658630
 -----------------------------------------------------------------------------------
    total drift:                                0.003375     -0.002691     -0.001992


--------------------------------------------------------------------------------------------------------



  FREE ENERGIE OF THE ION-ELECTRON SYSTEM (eV)
  ---------------------------------------------------
  free  energy   TOTEN  =      -268.13420987 eV

  energy  without entropy=     -268.14648329  energy(sigma->0) =     -268.13830101
 


--------------------------------------------------------------------------------------------------------


    POTLOK:  cpu time      0.1337: real time      0.1353


--------------------------------------------------------------------------------------------------------


     LOOP+:  cpu time    128.3096: real time    129.3228
    4ORBIT:  cpu time      0.0000: real time      0.0000

 total amount of memory used by VASP MPI-rank0    54478. kBytes
=======================================================================

   base      :      30000. kBytes
   nonlr-proj:       4614. kBytes
   fftplans  :       1668. kBytes
   grid      :       2261. kBytes
   one-center:         31. kBytes
   wavefun   :      15904. kBytes
 
  
  
 General timing and accounting informations for this job:
 ========================================================
  
                  Total CPU time used (sec):      134.828
                            User time (sec):      133.654
                          System time (sec):        1.175
                         Elapsed time (sec):      137.857
  
                   Maximum memory used (kb):      273336.
                   Average memory used (kb):          N/A
  
                          Minor page faults:        71866
                          Major page faults:            9
                 Voluntary context switches:         7212
