<?xml version="1.0" encoding="ISO-8859-1"?>
<modeling>
 <generator>
  <i name="program" type="string">vasp </i>
  <i name="version" type="string">6.3.0  </i>
  <i name="subversion" type="string">20Jan22 (build Mar 25 2022 12:20:17) complex                          parallel </i>
  <i name="platform" type="string">LinuxIFC </i>
  <i name="date" type="string">2023 07 25 </i>
  <i name="time" type="string">21:30:37 </i>
 </generator>
 <incar>
  <i type="string" name="PREC">Accurate</i>
  <i type="string" name="ALGO">normal</i>
  <i type="int" name="NELM">   400</i>
  <i name="EDIFF">      0.00001000</i>
  <i type="int" name="NSW">     0</i>
  <i type="int" name="ISIF">     2</i>
  <i name="ENCUT">    520.00000000</i>
  <i type="string" name="LREAL">Auto</i>
  <i type="int" name="ISMEAR">     1</i>
  <i name="SIGMA">      0.10000000</i>
  <i name="KSPACING">      0.20000000</i>
  <i type="logical" name="LWAVE"> F  </i>
  <i type="logical" name="LCHARG"> F  </i>
  <i type="logical" name="LASPH"> T  </i>
 </incar>
 <primitive_cell>
  <structure name="primitive_cell" >
   <crystal>
    <varray name="basis" >
     <v>       6.44325836      -0.00000000       0.00000000 </v>
     <v>      -0.01522462       6.66380179      -0.00000000 </v>
     <v>      -0.82682135      -0.15610911      18.98730721 </v>
    </varray>
    <i name="volume">    815.25035033 </i>
    <varray name="rec_basis" >
     <v>       0.15520098       0.00035458       0.00676130 </v>
     <v>       0.00000000       0.15006449       0.00123379 </v>
     <v>      -0.00000000       0.00000000       0.05266676 </v>
    </varray>
   </crystal>
   <varray name="positions" >
    <v>       0.00242125       0.00496420       0.63651148 </v>
    <v>       0.00644025       0.49673570       0.63528359 </v>
    <v>       0.49841136       0.99814908       0.63641444 </v>
    <v>       0.49622450       0.49650143       0.63707826 </v>
    <v>       0.99635238       0.99959795       0.27533825 </v>
    <v>       0.00179031       0.50235501       0.27323901 </v>
    <v>       0.50091303       0.99977142       0.27378213 </v>
    <v>       0.50404812       0.49699467       0.27142783 </v>
    <v>       0.00245092       0.00437185       0.45283270 </v>
    <v>       0.99989216       0.49894817       0.45426472 </v>
    <v>       0.50074976       0.00002126       0.45261650 </v>
    <v>       0.50250415       0.49931652       0.45364687 </v>
    <v>       0.25012492       0.24692381       0.72492556 </v>
    <v>       0.24780726       0.74835869       0.72752964 </v>
    <v>       0.74748728       0.24913095       0.72761953 </v>
    <v>       0.74604293       0.74854397       0.72816823 </v>
    <v>       0.24500287       0.24772240       0.36541338 </v>
    <v>       0.25184251       0.74998860       0.36257082 </v>
    <v>       0.74459692       0.25283124       0.36495333 </v>
    <v>       0.74616943       0.74741945       0.36374267 </v>
    <v>       0.25369041       0.25171326       0.54683444 </v>
    <v>       0.25543625       0.74625180       0.54479809 </v>
    <v>       0.74986859       0.25365189       0.54596389 </v>
    <v>       0.74676136       0.74620690       0.54385720 </v>
   </varray>
  </structure>
  <varray name="primitive_index" >
   <v type="int" >        1 </v>
   <v type="int" >        2 </v>
   <v type="int" >        3 </v>
   <v type="int" >        4 </v>
   <v type="int" >        5 </v>
   <v type="int" >        6 </v>
   <v type="int" >        7 </v>
   <v type="int" >        8 </v>
   <v type="int" >        9 </v>
   <v type="int" >       10 </v>
   <v type="int" >       11 </v>
   <v type="int" >       12 </v>
   <v type="int" >       13 </v>
   <v type="int" >       14 </v>
   <v type="int" >       15 </v>
   <v type="int" >       16 </v>
   <v type="int" >       17 </v>
   <v type="int" >       18 </v>
   <v type="int" >       19 </v>
   <v type="int" >       20 </v>
   <v type="int" >       21 </v>
   <v type="int" >       22 </v>
   <v type="int" >       23 </v>
   <v type="int" >       24 </v>
  </varray>
 </primitive_cell>
 <kpoints>
  <generation param="Gamma">
   <v type="int" name="divisions">       5        5        2 </v>
   <v name="usershift">      0.00000000       0.00000000       0.00000000 </v>
   <v name="genvec1">      0.20000000      -0.00000000      -0.00000000 </v>
   <v name="genvec2">      0.00000000       0.20000000      -0.00000000 </v>
   <v name="genvec3">     -0.00000000      -0.00000000       0.50000000 </v>
   <v name="shift">      0.00000000       0.00000000       0.00000000 </v>
  </generation>
  <varray name="kpointlist" >
   <v>       0.00000000       0.00000000       0.00000000 </v>
   <v>       0.20000000      -0.00000000      -0.00000000 </v>
   <v>       0.40000000      -0.00000000       0.00000000 </v>
   <v>       0.00000000       0.20000000      -0.00000000 </v>
   <v>       0.20000000       0.20000000       0.00000000 </v>
   <v>       0.40000000       0.20000000      -0.00000000 </v>
   <v>      -0.40000000       0.20000000       0.00000000 </v>
   <v>      -0.20000000       0.20000000       0.00000000 </v>
   <v>      -0.00000000       0.40000000      -0.00000000 </v>
   <v>       0.20000000       0.40000000       0.00000000 </v>
   <v>       0.40000000       0.40000000      -0.00000000 </v>
   <v>      -0.40000000       0.40000000       0.00000000 </v>
   <v>      -0.20000000       0.40000000       0.00000000 </v>
   <v>      -0.00000000       0.00000000       0.50000000 </v>
   <v>       0.20000000      -0.00000000       0.50000000 </v>
   <v>       0.40000000       0.00000000       0.50000000 </v>
   <v>       0.00000000       0.20000000       0.50000000 </v>
   <v>       0.20000000       0.20000000       0.50000000 </v>
   <v>       0.40000000       0.20000000       0.50000000 </v>
   <v>      -0.40000000       0.20000000       0.50000000 </v>
   <v>      -0.20000000       0.20000000       0.50000000 </v>
   <v>       0.00000000       0.40000000       0.50000000 </v>
   <v>       0.20000000       0.40000000       0.50000000 </v>
   <v>       0.40000000       0.40000000       0.50000000 </v>
   <v>      -0.40000000       0.40000000       0.50000000 </v>
   <v>      -0.20000000       0.40000000       0.50000000 </v>
  </varray>
  <varray name="weights" >
   <v>       0.02000000 </v>
   <v>       0.04000000 </v>
   <v>       0.04000000 </v>
   <v>       0.04000000 </v>
   <v>       0.04000000 </v>
   <v>       0.04000000 </v>
   <v>       0.04000000 </v>
   <v>       0.04000000 </v>
   <v>       0.04000000 </v>
   <v>       0.04000000 </v>
   <v>       0.04000000 </v>
   <v>       0.04000000 </v>
   <v>       0.04000000 </v>
   <v>       0.02000000 </v>
   <v>       0.04000000 </v>
   <v>       0.04000000 </v>
   <v>       0.04000000 </v>
   <v>       0.04000000 </v>
   <v>       0.04000000 </v>
   <v>       0.04000000 </v>
   <v>       0.04000000 </v>
   <v>       0.04000000 </v>
   <v>       0.04000000 </v>
   <v>       0.04000000 </v>
   <v>       0.04000000 </v>
   <v>       0.04000000 </v>
  </varray>
 </kpoints>
 <parameters>
  <separator name="general" >
   <i type="string" name="SYSTEM">unknown system</i>
   <i type="logical" name="LCOMPAT"> F  </i>
  </separator>
  <separator name="electronic" >
   <i type="string" name="PREC">accura</i>
   <i name="ENMAX">    520.00000000</i>
   <i name="ENAUG">    377.42100000</i>
   <i name="EDIFF">      0.00001000</i>
   <i type="int" name="IALGO">    38</i>
   <i type="int" name="IWAVPR">    10</i>
   <i type="int" name="NBANDS">   162</i>
   <i type="int" name="NBANDSLOW">    -1</i>
   <i type="int" name="NBANDSHIGH">    -1</i>
   <i name="NELECT">    264.00000000</i>
   <i type="int" name="TURBO">     0</i>
   <i type="int" name="IRESTART">     0</i>
   <i type="int" name="NREBOOT">     0</i>
   <i type="int" name="NMIN">     0</i>
   <i name="EREF">      0.00000000</i>
   <separator name="electronic smearing" >
    <i type="int" name="ISMEAR">     1</i>
    <i name="SIGMA">      0.10000000</i>
    <i name="KSPACING">      0.20000000</i>
    <i type="logical" name="KGAMMA"> T  </i>
    <i type="logical" name="KBLOWUP"> T  </i>
   </separator>
   <separator name="electronic projectors" >
    <i type="logical" name="LREAL"> T  </i>
    <v name="ROPT">     -0.00025000</v>
    <i type="int" name="LMAXPAW">  -100</i>
    <i type="int" name="LMAXMIX">     2</i>
    <i type="logical" name="NLSPLINE"> F  </i>
   </separator>
   <separator name="electronic startup" >
    <i type="int" name="ISTART">     0</i>
    <i type="int" name="ICHARG">     2</i>
    <i type="int" name="INIWAV">     1</i>
   </separator>
   <separator name="electronic spin" >
    <i type="int" name="ISPIN">     1</i>
    <i type="logical" name="LNONCOLLINEAR"> F  </i>
    <v name="MAGMOM">      1.00000000      1.00000000      1.00000000      1.00000000      1.00000000      1.00000000      1.00000000      1.00000000      1.00000000      1.00000000      1.00000000      1.00000000      1.00000000      1.00000000      1.00000000      1.00000000      1.00000000      1.00000000      1.00000000      1.00000000
      1.00000000      1.00000000      1.00000000      1.00000000</v>
    <i name="NUPDOWN">     -1.00000000</i>
    <i type="logical" name="LSORBIT"> F  </i>
    <v name="SAXIS">      0.00000000      0.00000000      1.00000000</v>
    <i type="logical" name="LSPIRAL"> F  </i>
    <v name="QSPIRAL">      0.00000000      0.00000000      0.00000000</v>
    <i type="logical" name="LZEROZ"> F  </i>
   </separator>
   <separator name="electronic exchange-correlation" >
    <i type="logical" name="LASPH"> T  </i>
    <i type="logical" name="LMETAGGA"> F  </i>
   </separator>
   <separator name="electronic convergence" >
    <i type="int" name="NELM">   400</i>
    <i type="int" name="NELMDL">    -5</i>
    <i type="int" name="NELMIN">     2</i>
    <i name="ENINI">    520.00000000</i>
    <separator name="electronic convergence detail" >
     <i type="logical" name="LDIAG"> T  </i>
     <i type="logical" name="LSUBROT"> F  </i>
     <i name="WEIMIN">      0.00000000</i>
     <i name="EBREAK">      0.00000002</i>
     <i name="DEPER">      0.30000000</i>
     <i type="int" name="NRMM">     4</i>
     <i name="TIME">      0.40000000</i>
    </separator>
   </separator>
   <separator name="electronic mixer" >
    <i name="AMIX">      0.40000000</i>
    <i name="BMIX">      1.00000000</i>
    <i name="AMIN">      0.10000000</i>
    <i name="AMIX_MAG">      1.60000000</i>
    <i name="BMIX_MAG">      1.00000000</i>
    <separator name="electronic mixer details" >
     <i type="int" name="IMIX">     4</i>
     <i type="logical" name="MIXFIRST"> F  </i>
     <i type="int" name="MAXMIX">   -45</i>
     <i name="WC">    100.00000000</i>
     <i type="int" name="INIMIX">     1</i>
     <i type="int" name="MIXPRE">     1</i>
     <i type="int" name="MREMOVE">     5</i>
    </separator>
   </separator>
   <separator name="electronic dipolcorrection" >
    <i type="logical" name="LDIPOL"> F  </i>
    <i type="logical" name="LMONO"> F  </i>
    <i type="int" name="IDIPOL">     0</i>
    <i name="EPSILON">      1.00000000</i>
    <v name="DIPOL">   -100.00000000   -100.00000000   -100.00000000</v>
    <i name="EFIELD">      0.00000000</i>
   </separator>
  </separator>
  <separator name="grids" >
   <i type="int" name="NGX">    48</i>
   <i type="int" name="NGY">    50</i>
   <i type="int" name="NGZ">   144</i>
   <i type="int" name="NGXF">    96</i>
   <i type="int" name="NGYF">   100</i>
   <i type="int" name="NGZF">   288</i>
   <i type="logical" name="ADDGRID"> F  </i>
  </separator>
  <separator name="ionic" >
   <i type="int" name="NSW">     0</i>
   <i type="int" name="IBRION">    -1</i>
   <i type="int" name="MDALGO">     0</i>
   <i type="int" name="ISIF">     2</i>
   <i name="PSTRESS">      0.00000000</i>
   <i name="EDIFFG">      0.00010000</i>
   <i type="int" name="NFREE">     0</i>
   <i name="POTIM">      0.50000000</i>
   <i name="SMASS">     -3.00000000</i>
   <i name="SCALEE">      1.00000000</i>
  </separator>
  <separator name="ionic md" >
   <i name="TEBEG">      0.00010000</i>
   <i name="TEEND">      0.00010000</i>
   <i type="int" name="NBLOCK">     1</i>
   <i type="int" name="KBLOCK">     1</i>
   <i type="int" name="NPACO">   256</i>
   <i name="APACO">     10.00000000</i>
  </separator>
  <separator name="symmetry" >
   <i type="int" name="ISYM">     2</i>
   <i name="SYMPREC">      0.00001000</i>
  </separator>
  <separator name="dos" >
   <i type="int" name="LORBIT">     0</i>
   <v name="RWIGS">     -1.00000000</v>
   <i type="int" name="NEDOS">   301</i>
   <i name="EMIN">     10.00000000</i>
   <i name="EMAX">    -10.00000000</i>
   <i name="EFERMI">      0.00000000</i>
  </separator>
  <separator name="writing" >
   <i type="int" name="NWRITE">     2</i>
   <i type="logical" name="LWAVE"> F  </i>
   <i type="logical" name="LDOWNSAMPLE"> F  </i>
   <i type="logical" name="LCHARG"> F  </i>
   <i type="logical" name="LPARD"> F  </i>
   <i type="logical" name="LVTOT"> F  </i>
   <i type="logical" name="LVHAR"> F  </i>
   <i type="logical" name="LELF"> F  </i>
   <i type="logical" name="LOPTICS"> F  </i>
   <v name="STM">      0.00000000      0.00000000      0.00000000      0.00000000      0.00000000      0.00000000      0.00000000</v>
  </separator>
  <separator name="performance" >
   <i type="int" name="NPAR">     6</i>
   <i type="int" name="NSIM">     4</i>
   <i type="int" name="NBLK">    -1</i>
   <i type="logical" name="LPLANE"> T  </i>
   <i type="logical" name="LSCALAPACK"> T  </i>
   <i type="logical" name="LSCAAWARE"> F  </i>
   <i type="logical" name="LSCALU"> F  </i>
   <i type="logical" name="LASYNC"> F  </i>
   <i type="logical" name="LORBITALREAL"> F  </i>
  </separator>
  <separator name="miscellaneous" >
   <i type="int" name="IDIOT">     3</i>
   <i type="int" name="PHON_NSTRUCT">    -1</i>
   <i type="logical" name="LMUSIC"> F  </i>
   <v name="POMASS">    180.94800000</v>
   <v name="DARWINR">      0.00000000</v>
   <v name="DARWINV">      1.00000000</v>
   <i type="logical" name="LCORR"> T  </i>
  </separator>
  <i type="logical" name="GGA_COMPAT"> T  </i>
  <i type="logical" name="LBERRY"> F  </i>
  <i type="int" name="ICORELEVEL">     0</i>
  <i type="logical" name="LDAU"> F  </i>
  <i type="int" name="I_CONSTRAINED_M">     0</i>
  <separator name="electronic exchange-correlation" >
   <i type="string" name="GGA">--</i>
   <i type="int" name="VOSKOWN">     0</i>
   <i type="logical" name="LHFCALC"> F  </i>
   <i type="string" name="PRECFOCK"></i>
   <i type="logical" name="LSYMGRAD"> F  </i>
   <i type="logical" name="LHFONE"> F  </i>
   <i type="logical" name="LRHFCALC"> F  </i>
   <i type="logical" name="LTHOMAS"> F  </i>
   <i type="logical" name="LMODELHF"> F  </i>
   <i type="logical" name="LFOCKACE"> F  </i>
   <i name="ENCUT4O">     -1.00000000</i>
   <i type="int" name="EXXOEP">     0</i>
   <i type="int" name="FOURORBIT">     0</i>
   <i name="AEXX">      0.00000000</i>
   <i name="HFALPHA">      0.00000000</i>
   <i name="MCALPHA">      0.00000000</i>
   <i name="ALDAX">      1.00000000</i>
   <i name="AGGAX">      1.00000000</i>
   <i name="ALDAC">      1.00000000</i>
   <i name="AGGAC">      1.00000000</i>
   <i type="int" name="NKREDX">     1</i>
   <i type="int" name="NKREDY">     1</i>
   <i type="int" name="NKREDZ">     1</i>
   <i type="logical" name="SHIFTRED"> F  </i>
   <i type="logical" name="ODDONLY"> F  </i>
   <i type="logical" name="EVENONLY"> F  </i>
   <i type="int" name="LMAXFOCK">     0</i>
   <i type="int" name="NMAXFOCKAE">     0</i>
   <i type="logical" name="LFOCKAEDFT"> F  </i>
   <i name="HFSCREEN">      0.00000000</i>
   <i name="HFSCREENC">      0.00000000</i>
   <i type="int" name="NBANDSGWLOW">     0</i>
  </separator>
  <separator name="vdW DFT" >
   <i type="logical" name="LUSE_VDW"> F  </i>
   <i name="Zab_VDW">     -0.84910000</i>
   <i name="PARAM1">      0.12340000</i>
   <i name="PARAM2">      1.00000000</i>
   <i name="PARAM3">      0.00000000</i>
  </separator>
  <separator name="model GW" >
   <i type="int" name="MODEL_GW">     0</i>
   <i name="MODEL_EPS0">     20.38125876</i>
   <i name="MODEL_ALPHA">      1.00000000</i>
  </separator>
  <separator name="linear response parameters" >
   <i type="logical" name="LEPSILON"> F  </i>
   <i type="logical" name="LRPA"> F  </i>
   <i type="logical" name="LNABLA"> F  </i>
   <i type="logical" name="LVEL"> F  </i>
   <i name="CSHIFT">      0.10000000</i>
   <i name="OMEGAMAX">     -1.00000000</i>
   <i name="DEG_THRESHOLD">      0.00200000</i>
   <i name="RTIME">     -0.10000000</i>
   <i name="WPLASMAI">      0.00000000</i>
   <v name="DFIELD">      0.00000000      0.00000000      0.00000000</v>
   <v name="WPLASMA">      0.00000000      0.00000000      0.00000000      0.00000000      0.00000000      0.00000000      0.00000000      0.00000000      0.00000000</v>
  </separator>
  <separator name="orbital magnetization" >
   <i type="logical" name="NUCIND"> F  </i>
   <v name="MAGPOS">      0.00000000      0.00000000      0.00000000</v>
   <i type="logical" name="LNICSALL"> T  </i>
   <i type="logical" name="ORBITALMAG"> F  </i>
   <i type="logical" name="LMAGBLOCH"> F  </i>
   <i type="logical" name="LCHIMAG"> F  </i>
   <i type="logical" name="LGAUGE"> T  </i>
   <i type="int" name="MAGATOM">     0</i>
   <v name="MAGDIPOL">      0.00000000      0.00000000      0.00000000</v>
   <v name="AVECCONST">      0.00000000      0.00000000      0.00000000</v>
  </separator>
  <separator name="response functions" >
   <i type="logical" name="LFINITE_TEMPERATURE"> F  </i>
   <i type="logical" name="LADDER"> F  </i>
   <i type="logical" name="LRPAFORCE"> F  </i>
   <i type="logical" name="LFXC"> F  </i>
   <i type="logical" name="LHARTREE"> T  </i>
   <i type="int" name="IBSE">     0</i>
   <v type="int" name="KPOINT">    -1     0     0     0</v>
   <i type="logical" name="LTCTC"> F  </i>
   <i type="logical" name="LTCTE"> F  </i>
   <i type="logical" name="LTETE"> F  </i>
   <i type="logical" name="LTRIPLET"> F  </i>
   <i type="logical" name="LFXCEPS"> F  </i>
   <i type="logical" name="LFXHEG"> F  </i>
   <i type="int" name="NATURALO">     2</i>
   <i type="logical" name="LHOLEGF"> F  </i>
   <i type="logical" name="L2ORDER"> F  </i>
   <i type="logical" name="LDMP1"> F  </i>
   <i type="logical" name="LMP2LT"> F  </i>
   <i type="logical" name="LSMP2LT"> F  </i>
   <i type="logical" name="LGWLF"> F  </i>
   <i name="ENCUTGW">     -2.00000000</i>
   <i name="ENCUTGWSOFT">     -2.00000000</i>
   <i name="ENCUTLF">     -1.00000000</i>
   <i type="logical" name="LESF_SPLINES"> F  </i>
   <i type="int" name="LMAXMP2">    -1</i>
   <i name="SCISSOR">      0.00000000</i>
   <i type="int" name="NOMEGA">     0</i>
   <i type="int" name="NOMEGAR">     0</i>
   <i type="int" name="NBANDSGW">    -1</i>
   <i type="int" name="NBANDSO">    -1</i>
   <i type="int" name="NBANDSV">    -1</i>
   <i type="int" name="NELMGW">     1</i>
   <i type="int" name="NELMHF">     1</i>
   <i type="int" name="DIM">     3</i>
   <i type="int" name="IESPILON">     4</i>
   <i type="int" name="ANTIRES">     0</i>
   <i name="OMEGAMAX">    -30.00000000</i>
   <i name="OMEGAMIN">    -30.00000000</i>
   <i name="OMEGATL">   -200.00000000</i>
   <i type="int" name="OMEGAGRID">     0</i>
   <i name="CSHIFT">     -0.10000000</i>
   <i type="logical" name="LSELFENERGY"> F  </i>
   <i type="logical" name="LSPECTRAL"> F  </i>
   <i type="logical" name="LSPECTRALGW"> F  </i>
   <i type="logical" name="LSINGLES"> F  </i>
   <i type="logical" name="LFERMIGW"> F  </i>
   <i type="logical" name="ODDONLYGW"> F  </i>
   <i type="logical" name="EVENONLYGW"> F  </i>
   <i type="int" name="NKREDLFX">     1</i>
   <i type="int" name="NKREDLFY">     1</i>
   <i type="int" name="NKREDLFZ">     1</i>
   <i type="int" name="MAXMEM">  2800</i>
   <i type="int" name="TELESCOPE">     0</i>
   <i type="int" name="NTAUPAR">    -1</i>
   <i type="int" name="NOMEGAPAR">    -1</i>
   <i name="DAMP_NEWTON">      0.80000001</i>
   <i name="LAMBDA">      1.00000000</i>
  </separator>
  <separator name="External order field" >
   <i name="OFIELD_KAPPA">      0.00000000</i>
   <v name="OFIELD_K">      0.00000000      0.00000000      0.00000000</v>
   <i name="OFIELD_Q6_NEAR">      0.00000000</i>
   <i name="OFIELD_Q6_FAR">      0.00000000</i>
   <i name="OFIELD_A">      0.00000000</i>
  </separator>
  <separator name="optional k-points parameters" >
   <i type="int" name="KPOINTS_OPT_MODE">     1</i>
   <i type="logical" name="LKPOINTS_OPT"> F  </i>
  </separator>
 </parameters>
 <atominfo>
  <atoms>      24 </atoms>
  <types>       1 </types>
  <array name="atoms" >
   <dimension dim="1">ion</dimension>
   <field type="string">element</field>
   <field type="int">atomtype</field>
   <set>
    <rc><c>Ta</c><c>   1</c></rc>
    <rc><c>Ta</c><c>   1</c></rc>
    <rc><c>Ta</c><c>   1</c></rc>
    <rc><c>Ta</c><c>   1</c></rc>
    <rc><c>Ta</c><c>   1</c></rc>
    <rc><c>Ta</c><c>   1</c></rc>
    <rc><c>Ta</c><c>   1</c></rc>
    <rc><c>Ta</c><c>   1</c></rc>
    <rc><c>Ta</c><c>   1</c></rc>
    <rc><c>Ta</c><c>   1</c></rc>
    <rc><c>Ta</c><c>   1</c></rc>
    <rc><c>Ta</c><c>   1</c></rc>
    <rc><c>Ta</c><c>   1</c></rc>
    <rc><c>Ta</c><c>   1</c></rc>
    <rc><c>Ta</c><c>   1</c></rc>
    <rc><c>Ta</c><c>   1</c></rc>
    <rc><c>Ta</c><c>   1</c></rc>
    <rc><c>Ta</c><c>   1</c></rc>
    <rc><c>Ta</c><c>   1</c></rc>
    <rc><c>Ta</c><c>   1</c></rc>
    <rc><c>Ta</c><c>   1</c></rc>
    <rc><c>Ta</c><c>   1</c></rc>
    <rc><c>Ta</c><c>   1</c></rc>
    <rc><c>Ta</c><c>   1</c></rc>
   </set>
  </array>
  <array name="atomtypes" >
   <dimension dim="1">type</dimension>
   <field type="int">atomspertype</field>
   <field type="string">element</field>
   <field>mass</field>
   <field>valence</field>
   <field type="string">pseudopotential</field>
   <set>
    <rc><c>  24</c><c>Ta</c><c>    180.94800000</c><c>     11.00000000</c><c>  PAW_PBE Ta_pv 07Sep2000               </c></rc>
   </set>
  </array>
 </atominfo>
 <structure name="initialpos" >
  <crystal>
   <varray name="basis" >
    <v>       6.44325836      -0.00000000       0.00000000 </v>
    <v>      -0.01522462       6.66380179      -0.00000000 </v>
    <v>      -0.82682135      -0.15610911      18.98730721 </v>
   </varray>
   <i name="volume">    815.25035033 </i>
   <varray name="rec_basis" >
    <v>       0.15520098       0.00035458       0.00676130 </v>
    <v>       0.00000000       0.15006449       0.00123379 </v>
    <v>      -0.00000000       0.00000000       0.05266676 </v>
   </varray>
  </crystal>
  <varray name="positions" >
   <v>       0.00242125       0.00496420       0.63651148 </v>
   <v>       0.00644025       0.49673570       0.63528359 </v>
   <v>       0.49841136       0.99814908       0.63641444 </v>
   <v>       0.49622450       0.49650143       0.63707826 </v>
   <v>       0.99635238       0.99959795       0.27533825 </v>
   <v>       0.00179031       0.50235501       0.27323901 </v>
   <v>       0.50091303       0.99977142       0.27378213 </v>
   <v>       0.50404812       0.49699467       0.27142783 </v>
   <v>       0.00245092       0.00437185       0.45283270 </v>
   <v>       0.99989216       0.49894817       0.45426472 </v>
   <v>       0.50074976       0.00002126       0.45261650 </v>
   <v>       0.50250415       0.49931652       0.45364687 </v>
   <v>       0.25012492       0.24692381       0.72492556 </v>
   <v>       0.24780726       0.74835869       0.72752964 </v>
   <v>       0.74748728       0.24913095       0.72761953 </v>
   <v>       0.74604293       0.74854397       0.72816823 </v>
   <v>       0.24500287       0.24772240       0.36541338 </v>
   <v>       0.25184251       0.74998860       0.36257082 </v>
   <v>       0.74459692       0.25283124       0.36495333 </v>
   <v>       0.74616943       0.74741945       0.36374267 </v>
   <v>       0.25369041       0.25171326       0.54683444 </v>
   <v>       0.25543625       0.74625180       0.54479809 </v>
   <v>       0.74986859       0.25365189       0.54596389 </v>
   <v>       0.74676136       0.74620690       0.54385720 </v>
  </varray>
 </structure>
 <calculation>
  <scstep>
   <time name="dav">    4.78    5.03</time>
   <time name="total">    4.93    5.20</time>
   <energy>
    <i name="alphaZ">   1619.74335931 </i>
    <i name="ewald">  27210.97680526 </i>
    <i name="hartreedc"> -50313.31467600 </i>
    <i name="XCdc">    552.66464300 </i>
    <i name="pawpsdc">  19702.76206781 </i>
    <i name="pawaedc"> -19306.57604668 </i>
    <i name="eentropy">     -0.00306792 </i>
    <i name="bandstr">  -1992.76011344 </i>
    <i name="atom">  25132.72213645 </i>
    <i name="e_fr_energy">   2606.21510779 </i>
    <i name="e_wo_entrp">   2606.21817571 </i>
    <i name="e_0_energy">   2606.21613043 </i>
   </energy>
  </scstep>
  <scstep>
   <time name="dav">    4.40    4.42</time>
   <time name="total">    4.40    4.43</time>
   <energy>
    <i name="e_fr_energy">   -159.00548011 </i>
    <i name="e_wo_entrp">   -159.00836806 </i>
    <i name="e_0_energy">   -159.00644276 </i>
   </energy>
  </scstep>
  <scstep>
   <time name="dav">    5.04    5.07</time>
   <time name="total">    5.05    5.08</time>
   <energy>
    <i name="e_fr_energy">   -293.26958292 </i>
    <i name="e_wo_entrp">   -293.27147689 </i>
    <i name="e_0_energy">   -293.27021424 </i>
   </energy>
  </scstep>
  <scstep>
   <time name="dav">    5.01    5.04</time>
   <time name="total">    5.01    5.04</time>
   <energy>
    <i name="e_fr_energy">   -299.27677769 </i>
    <i name="e_wo_entrp">   -299.27870539 </i>
    <i name="e_0_energy">   -299.27742026 </i>
   </energy>
  </scstep>
  <scstep>
   <time name="dav">    5.17    5.20</time>
   <time name="total">    5.33    5.37</time>
   <energy>
    <i name="e_fr_energy">   -299.52961151 </i>
    <i name="e_wo_entrp">   -299.53145238 </i>
    <i name="e_0_energy">   -299.53022514 </i>
   </energy>
  </scstep>
  <scstep>
   <time name="dav">    5.56    5.58</time>
   <time name="total">    5.85    5.88</time>
   <energy>
    <i name="e_fr_energy">   -357.06579671 </i>
    <i name="e_wo_entrp">   -357.05565462 </i>
    <i name="e_0_energy">   -357.06241601 </i>
   </energy>
  </scstep>
  <scstep>
   <time name="dav">    5.14    5.15</time>
   <time name="total">    5.42    5.45</time>
   <energy>
    <i name="e_fr_energy">   -293.47006165 </i>
    <i name="e_wo_entrp">   -293.47281905 </i>
    <i name="e_0_energy">   -293.47098078 </i>
   </energy>
  </scstep>
  <scstep>
   <time name="dav">    5.04    5.05</time>
   <time name="total">    5.32    5.35</time>
   <energy>
    <i name="e_fr_energy">   -278.49804000 </i>
    <i name="e_wo_entrp">   -278.48455636 </i>
    <i name="e_0_energy">   -278.49354546 </i>
   </energy>
  </scstep>
  <scstep>
   <time name="dav">    4.99    5.01</time>
   <time name="total">    5.28    5.30</time>
   <energy>
    <i name="e_fr_energy">   -270.16615952 </i>
    <i name="e_wo_entrp">   -270.15472639 </i>
    <i name="e_0_energy">   -270.16234848 </i>
   </energy>
  </scstep>
  <scstep>
   <time name="dav">    5.24    5.27</time>
   <time name="total">    5.53    5.57</time>
   <energy>
    <i name="e_fr_energy">   -269.33455772 </i>
    <i name="e_wo_entrp">   -269.33548941 </i>
    <i name="e_0_energy">   -269.33486828 </i>
   </energy>
  </scstep>
  <scstep>
   <time name="dav">    5.12    5.13</time>
   <time name="total">    5.40    5.43</time>
   <energy>
    <i name="e_fr_energy">   -268.50815243 </i>
    <i name="e_wo_entrp">   -268.50771086 </i>
    <i name="e_0_energy">   -268.50800524 </i>
   </energy>
  </scstep>
  <scstep>
   <time name="dav">    5.05    5.06</time>
   <time name="total">    5.33    5.36</time>
   <energy>
    <i name="e_fr_energy">   -268.35015692 </i>
    <i name="e_wo_entrp">   -268.35193788 </i>
    <i name="e_0_energy">   -268.35075057 </i>
   </energy>
  </scstep>
  <scstep>
   <time name="dav">    4.87    4.88</time>
   <time name="total">    5.15    5.18</time>
   <energy>
    <i name="e_fr_energy">   -268.21716874 </i>
    <i name="e_wo_entrp">   -268.22379745 </i>
    <i name="e_0_energy">   -268.21937831 </i>
   </energy>
  </scstep>
  <scstep>
   <time name="dav">    4.90    4.91</time>
   <time name="total">    5.18    5.21</time>
   <energy>
    <i name="e_fr_energy">   -268.14491939 </i>
    <i name="e_wo_entrp">   -268.15589826 </i>
    <i name="e_0_energy">   -268.14857902 </i>
   </energy>
  </scstep>
  <scstep>
   <time name="dav">    5.18    5.19</time>
   <time name="total">    5.47    5.49</time>
   <energy>
    <i name="e_fr_energy">   -268.13376757 </i>
    <i name="e_wo_entrp">   -268.14610017 </i>
    <i name="e_0_energy">   -268.13787844 </i>
   </energy>
  </scstep>
  <scstep>
   <time name="dav">    4.87    4.88</time>
   <time name="total">    5.15    5.18</time>
   <energy>
    <i name="e_fr_energy">   -268.13348886 </i>
    <i name="e_wo_entrp">   -268.14596849 </i>
    <i name="e_0_energy">   -268.13764874 </i>
   </energy>
  </scstep>
  <scstep>
   <time name="dav">    5.21    5.24</time>
   <time name="total">    5.50    5.54</time>
   <energy>
    <i name="e_fr_energy">   -268.13393041 </i>
    <i name="e_wo_entrp">   -268.14642786 </i>
    <i name="e_0_energy">   -268.13809622 </i>
   </energy>
  </scstep>
  <scstep>
   <time name="dav">    4.86    4.88</time>
   <time name="total">    5.14    5.17</time>
   <energy>
    <i name="e_fr_energy">   -268.13384141 </i>
    <i name="e_wo_entrp">   -268.14628085 </i>
    <i name="e_0_energy">   -268.13798789 </i>
   </energy>
  </scstep>
  <scstep>
   <time name="dav">    4.75    4.76</time>
   <time name="total">    5.04    5.06</time>
   <energy>
    <i name="e_fr_energy">   -268.13377012 </i>
    <i name="e_wo_entrp">   -268.14616876 </i>
    <i name="e_0_energy">   -268.13790300 </i>
   </energy>
  </scstep>
  <scstep>
   <time name="dav">    4.75    4.76</time>
   <time name="total">    5.04    5.06</time>
   <energy>
    <i name="e_fr_energy">   -268.13392732 </i>
    <i name="e_wo_entrp">   -268.14627189 </i>
    <i name="e_0_energy">   -268.13804218 </i>
   </energy>
  </scstep>
  <scstep>
   <time name="dav">    4.27    4.29</time>
   <time name="total">    4.55    4.58</time>
   <energy>
    <i name="e_fr_energy">   -268.13410604 </i>
    <i name="e_wo_entrp">   -268.14639409 </i>
    <i name="e_0_energy">   -268.13820206 </i>
   </energy>
  </scstep>
  <scstep>
   <time name="dav">    3.71    3.74</time>
   <time name="total">    3.99    4.04</time>
   <energy>
    <i name="e_fr_energy">   -268.13416689 </i>
    <i name="e_wo_entrp">   -268.14644551 </i>
    <i name="e_0_energy">   -268.13825976 </i>
   </energy>
  </scstep>
  <scstep>
   <time name="dav">    3.97    3.97</time>
   <time name="total">    4.25    4.27</time>
   <energy>
    <i name="e_fr_energy">   -268.13419041 </i>
    <i name="e_wo_entrp">   -268.14647967 </i>
    <i name="e_0_energy">   -268.13828683 </i>
   </energy>
  </scstep>
  <scstep>
   <time name="dav">    3.78    3.79</time>
   <time name="total">    4.07    4.09</time>
   <energy>
    <i name="e_fr_energy">   -268.13420832 </i>
    <i name="e_wo_entrp">   -268.14648934 </i>
    <i name="e_0_energy">   -268.13830199 </i>
   </energy>
  </scstep>
  <scstep>
   <time name="dav">    3.14    3.15</time>
   <time name="total">    3.28    3.30</time>
   <energy>
    <i name="alphaZ">   1619.74335931 </i>
    <i name="ewald">  27210.97680526 </i>
    <i name="hartreedc"> -50290.27061271 </i>
    <i name="XCdc">    535.81104694 </i>
    <i name="pawpsdc">  34486.13854288 </i>
    <i name="pawaedc"> -34153.56297702 </i>
    <i name="eentropy">      0.01227342 </i>
    <i name="bandstr">  -4809.70478441 </i>
    <i name="atom">  25132.72213645 </i>
    <i name="e_fr_energy">   -268.13420987 </i>
    <i name="e_wo_entrp">   -268.14648329 </i>
    <i name="e_0_energy">   -268.13830101 </i>
   </energy>
  </scstep>
  <structure>
   <crystal>
    <varray name="basis" >
     <v>       6.44325836      -0.00000000       0.00000000 </v>
     <v>      -0.01522462       6.66380179      -0.00000000 </v>
     <v>      -0.82682135      -0.15610911      18.98730721 </v>
    </varray>
    <i name="volume">    815.25035033 </i>
    <varray name="rec_basis" >
     <v>       0.15520098       0.00035458       0.00676130 </v>
     <v>       0.00000000       0.15006449       0.00123379 </v>
     <v>      -0.00000000       0.00000000       0.05266676 </v>
    </varray>
   </crystal>
   <varray name="positions" >
    <v>       0.00242125       0.00496420       0.63651148 </v>
    <v>       0.00644025       0.49673570       0.63528359 </v>
    <v>       0.49841136       0.99814908       0.63641444 </v>
    <v>       0.49622450       0.49650143       0.63707826 </v>
    <v>       0.99635238       0.99959795       0.27533825 </v>
    <v>       0.00179031       0.50235501       0.27323901 </v>
    <v>       0.50091303       0.99977142       0.27378213 </v>
    <v>       0.50404812       0.49699467       0.27142783 </v>
    <v>       0.00245092       0.00437185       0.45283270 </v>
    <v>       0.99989216       0.49894817       0.45426472 </v>
    <v>       0.50074976       0.00002126       0.45261650 </v>
    <v>       0.50250415       0.49931652       0.45364687 </v>
    <v>       0.25012492       0.24692381       0.72492556 </v>
    <v>       0.24780726       0.74835869       0.72752964 </v>
    <v>       0.74748728       0.24913095       0.72761953 </v>
    <v>       0.74604293       0.74854397       0.72816823 </v>
    <v>       0.24500287       0.24772240       0.36541338 </v>
    <v>       0.25184251       0.74998860       0.36257082 </v>
    <v>       0.74459692       0.25283124       0.36495333 </v>
    <v>       0.74616943       0.74741945       0.36374267 </v>
    <v>       0.25369041       0.25171326       0.54683444 </v>
    <v>       0.25543625       0.74625180       0.54479809 </v>
    <v>       0.74986859       0.25365189       0.54596389 </v>
    <v>       0.74676136       0.74620690       0.54385720 </v>
   </varray>
  </structure>
  <varray name="forces" >
   <v>      -0.10924153      -0.55047699       0.65700208 </v>
   <v>      -0.40725835       0.41680955       1.00807587 </v>
   <v>       0.45128502      -0.01229830       0.88550706 </v>
   <v>       0.71536772       0.27688182       0.85373935 </v>
   <v>      -0.04955199      -0.00267020       1.18801462 </v>
   <v>      -0.09248796      -0.07643581       1.37307680 </v>
   <v>      -0.10005425       0.02900453       1.32451976 </v>
   <v>      -0.17015284      -0.02051097       1.49080058 </v>
   <v>      -0.18065482      -0.37911129      -0.04809427 </v>
   <v>       0.15239813       0.19154239      -0.29212596 </v>
   <v>       0.01749547      -0.02947120       0.00020889 </v>
   <v>      -0.24222421      -0.02442470      -0.25842041 </v>
   <v>       0.03932392       0.00790973      -1.01727325 </v>
   <v>      -0.00654228       0.05260320      -1.43792666 </v>
   <v>       0.11025508      -0.01847648      -1.50537324 </v>
   <v>       0.13108489       0.02406338      -1.50683039 </v>
   <v>       0.12348785       0.23072060      -1.24211325 </v>
   <v>      -0.41331425      -0.13001183      -0.76514015 </v>
   <v>       0.16246128      -0.25319909      -1.12619751 </v>
   <v>       0.18379470       0.20949815      -0.96613262 </v>
   <v>      -0.29217689      -0.29356549       0.03876519 </v>
   <v>      -0.46690177       0.32589102       0.35990497 </v>
   <v>       0.03403661      -0.33496873       0.32738215 </v>
   <v>       0.40957046       0.36069672       0.65863037 </v>
  </varray>
  <varray name="stress" >
   <v>     -50.82320335       0.62181512       8.78466016 </v>
   <v>       0.62181497     -59.72787023       2.04556077 </v>
   <v>       8.78466163       2.04555940     -50.78791641 </v>
  </varray>
  <energy>
   <i name="e_fr_energy">   -268.13420987 </i>
   <i name="e_wo_entrp">   -268.14648329 </i>
   <i name="e_0_energy">   -268.13830101 </i>
  </energy>
  <time name="totalsc">  128.31  129.32</time>
  <eigenvalues>
   <array>
    <dimension dim="1">band</dimension>
    <dimension dim="2">kpoint</dimension>
    <dimension dim="3">spin</dimension>
    <field>eigene</field>
    <field>occ</field>
    <set>
     <set comment="spin 1">
      <set comment="kpoint 1">
       <r>  -33.5765    1.0000 </r>
       <r>  -33.5705    1.0000 </r>
       <r>  -33.5542    1.0000 </r>
       <r>  -33.5507    1.0000 </r>
       <r>  -33.5498    1.0000 </r>
       <r>  -33.5484    1.0000 </r>
       <r>  -33.5459    1.0000 </r>
       <r>  -33.5408    1.0000 </r>
       <r>  -33.5382    1.0000 </r>
       <r>  -33.5292    1.0000 </r>
       <r>  -33.5146    1.0000 </r>
       <r>  -33.5137    1.0000 </r>
       <r>  -33.4989    1.0000 </r>
       <r>  -33.4986    1.0000 </r>
       <r>  -33.4268    1.0000 </r>
       <r>  -33.4172    1.0000 </r>
       <r>  -33.3399    1.0000 </r>
       <r>  -33.3337    1.0000 </r>
       <r>  -33.2930    1.0000 </r>
       <r>  -33.2884    1.0000 </r>
       <r>  -33.2739    1.0000 </r>
       <r>  -33.2601    1.0000 </r>
       <r>  -33.2407    1.0000 </r>
       <r>  -33.2305    1.0000 </r>
       <r>  -32.8883    1.0000 </r>
       <r>  -32.8811    1.0000 </r>
       <r>  -32.8753    1.0000 </r>
       <r>  -32.8726    1.0000 </r>
       <r>  -32.8664    1.0000 </r>
       <r>  -32.8603    1.0000 </r>
       <r>  -32.7440    1.0000 </r>
       <r>  -32.6662    1.0000 </r>
       <r>  -32.6627    1.0000 </r>
       <r>  -32.6453    1.0000 </r>
       <r>  -32.6335    1.0000 </r>
       <r>  -32.6220    1.0000 </r>
       <r>  -32.6176    1.0000 </r>
       <r>  -32.5934    1.0000 </r>
       <r>  -32.5916    1.0000 </r>
       <r>  -32.5286    1.0000 </r>
       <r>  -32.4815    1.0000 </r>
       <r>  -32.4677    1.0000 </r>
       <r>  -32.4590    1.0000 </r>
       <r>  -32.4185    1.0000 </r>
       <r>  -32.3966    1.0000 </r>
       <r>  -32.3839    1.0000 </r>
       <r>  -32.3784    1.0000 </r>
       <r>  -32.3689    1.0000 </r>
       <r>  -32.3613    1.0000 </r>
       <r>  -32.3524    1.0000 </r>
       <r>  -32.3376    1.0000 </r>
       <r>  -32.3270    1.0000 </r>
       <r>  -32.3196    1.0000 </r>
       <r>  -32.2917    1.0000 </r>
       <r>  -32.2699    1.0000 </r>
       <r>  -32.2567    1.0000 </r>
       <r>  -32.2507    1.0000 </r>
       <r>  -32.2467    1.0000 </r>
       <r>  -32.2291    1.0000 </r>
       <r>  -32.2255    1.0000 </r>
       <r>  -32.2056    1.0000 </r>
       <r>  -32.1880    1.0000 </r>
       <r>  -32.1706    1.0000 </r>
       <r>  -32.0987    1.0000 </r>
       <r>  -32.0599    1.0000 </r>
       <r>  -32.0436    1.0000 </r>
       <r>  -32.0359    1.0000 </r>
       <r>  -32.0059    1.0000 </r>
       <r>  -31.9914    1.0000 </r>
       <r>  -31.9849    1.0000 </r>
       <r>  -31.9703    1.0000 </r>
       <r>  -31.9495    1.0000 </r>
       <r>   -6.1992    1.0000 </r>
       <r>   -5.2092    1.0000 </r>
       <r>   -3.6946    1.0000 </r>
       <r>   -2.9156    1.0000 </r>
       <r>   -2.8972    1.0000 </r>
       <r>   -2.8931    1.0000 </r>
       <r>   -2.8138    1.0000 </r>
       <r>   -2.6254    1.0000 </r>
       <r>   -2.6184    1.0000 </r>
       <r>   -2.5835    1.0000 </r>
       <r>   -2.5772    1.0000 </r>
       <r>   -2.4646    1.0000 </r>
       <r>   -2.4253    1.0000 </r>
       <r>   -2.3509    1.0000 </r>
       <r>   -2.2155    1.0000 </r>
       <r>   -2.1564    1.0000 </r>
       <r>   -2.1359    1.0000 </r>
       <r>   -2.1309    1.0000 </r>
       <r>   -1.9118    1.0000 </r>
       <r>   -1.8959    1.0000 </r>
       <r>   -1.8792    1.0000 </r>
       <r>   -1.6778    1.0000 </r>
       <r>   -1.6720    1.0000 </r>
       <r>   -1.6410    1.0000 </r>
       <r>   -0.6643    1.0000 </r>
       <r>   -0.6512    1.0000 </r>
       <r>   -0.5855    1.0000 </r>
       <r>   -0.5715    1.0000 </r>
       <r>   -0.5488    1.0000 </r>
       <r>   -0.5381    1.0000 </r>
       <r>   -0.5325    1.0000 </r>
       <r>   -0.1640    1.0000 </r>
       <r>   -0.1369    1.0000 </r>
       <r>   -0.0630    1.0000 </r>
       <r>    0.1046    1.0000 </r>
       <r>    0.1832    1.0000 </r>
       <r>    0.2095    1.0000 </r>
       <r>    0.2635    1.0000 </r>
       <r>    0.3030    1.0000 </r>
       <r>    0.4271    1.0000 </r>
       <r>    0.4743    1.0000 </r>
       <r>    0.6008    1.0000 </r>
       <r>    0.6198    1.0000 </r>
       <r>    0.6589    1.0000 </r>
       <r>    0.6876    1.0000 </r>
       <r>    0.7281    1.0000 </r>
       <r>    0.7383    1.0000 </r>
       <r>    0.7632    1.0000 </r>
       <r>    0.7828    1.0000 </r>
       <r>    0.8054    1.0000 </r>
       <r>    1.1028    1.0004 </r>
       <r>    1.1428    1.0024 </r>
       <r>    1.2390    1.0330 </r>
       <r>    1.2615    1.0342 </r>
       <r>    1.4419    0.0529 </r>
       <r>    1.4687   -0.0166 </r>
       <r>    1.4975   -0.0355 </r>
       <r>    1.5120   -0.0330 </r>
       <r>    1.5563   -0.0141 </r>
       <r>    1.6040   -0.0029 </r>
       <r>    1.8591   -0.0000 </r>
       <r>    1.8695   -0.0000 </r>
       <r>    1.9064   -0.0000 </r>
       <r>    1.9180   -0.0000 </r>
       <r>    1.9436   -0.0000 </r>
       <r>    1.9764   -0.0000 </r>
       <r>    2.1042   -0.0000 </r>
       <r>    2.1194   -0.0000 </r>
       <r>    2.1514   -0.0000 </r>
       <r>    2.1709   -0.0000 </r>
       <r>    2.2853   -0.0000 </r>
       <r>    2.3664   -0.0000 </r>
       <r>    2.3745   -0.0000 </r>
       <r>    2.5327   -0.0000 </r>
       <r>    2.6361   -0.0000 </r>
       <r>    2.6500   -0.0000 </r>
       <r>    2.9947   -0.0000 </r>
       <r>    3.0692   -0.0000 </r>
       <r>    3.0899   -0.0000 </r>
       <r>    3.1380   -0.0000 </r>
       <r>    3.2103   -0.0000 </r>
       <r>    3.3309   -0.0000 </r>
       <r>    3.4249   -0.0000 </r>
       <r>    3.4570   -0.0000 </r>
       <r>    3.5043   -0.0000 </r>
       <r>    3.5278   -0.0000 </r>
       <r>    3.5349   -0.0000 </r>
       <r>    3.5597   -0.0000 </r>
       <r>    3.7612   -0.0000 </r>
       <r>    3.7722   -0.0000 </r>
      </set>
      <set comment="kpoint 2">
       <r>  -33.5552    1.0000 </r>
       <r>  -33.5501    1.0000 </r>
       <r>  -33.5491    1.0000 </r>
       <r>  -33.5430    1.0000 </r>
       <r>  -33.5407    1.0000 </r>
       <r>  -33.5378    1.0000 </r>
       <r>  -33.5325    1.0000 </r>
       <r>  -33.5287    1.0000 </r>
       <r>  -33.5281    1.0000 </r>
       <r>  -33.5232    1.0000 </r>
       <r>  -33.5130    1.0000 </r>
       <r>  -33.5121    1.0000 </r>
       <r>  -33.4979    1.0000 </r>
       <r>  -33.4968    1.0000 </r>
       <r>  -33.4308    1.0000 </r>
       <r>  -33.4205    1.0000 </r>
       <r>  -33.3364    1.0000 </r>
       <r>  -33.3290    1.0000 </r>
       <r>  -33.3210    1.0000 </r>
       <r>  -33.3168    1.0000 </r>
       <r>  -33.2790    1.0000 </r>
       <r>  -33.2699    1.0000 </r>
       <r>  -33.2635    1.0000 </r>
       <r>  -33.2591    1.0000 </r>
       <r>  -32.8706    1.0000 </r>
       <r>  -32.8666    1.0000 </r>
       <r>  -32.8618    1.0000 </r>
       <r>  -32.8569    1.0000 </r>
       <r>  -32.8524    1.0000 </r>
       <r>  -32.8390    1.0000 </r>
       <r>  -32.7432    1.0000 </r>
       <r>  -32.6788    1.0000 </r>
       <r>  -32.6760    1.0000 </r>
       <r>  -32.6512    1.0000 </r>
       <r>  -32.6406    1.0000 </r>
       <r>  -32.6348    1.0000 </r>
       <r>  -32.6253    1.0000 </r>
       <r>  -32.5966    1.0000 </r>
       <r>  -32.5816    1.0000 </r>
       <r>  -32.5161    1.0000 </r>
       <r>  -32.4828    1.0000 </r>
       <r>  -32.4749    1.0000 </r>
       <r>  -32.4640    1.0000 </r>
       <r>  -32.4559    1.0000 </r>
       <r>  -32.4227    1.0000 </r>
       <r>  -32.4071    1.0000 </r>
       <r>  -32.3994    1.0000 </r>
       <r>  -32.3914    1.0000 </r>
       <r>  -32.3727    1.0000 </r>
       <r>  -32.3531    1.0000 </r>
       <r>  -32.3240    1.0000 </r>
       <r>  -32.3154    1.0000 </r>
       <r>  -32.3066    1.0000 </r>
       <r>  -32.2988    1.0000 </r>
       <r>  -32.2758    1.0000 </r>
       <r>  -32.2657    1.0000 </r>
       <r>  -32.2503    1.0000 </r>
       <r>  -32.2322    1.0000 </r>
       <r>  -32.2161    1.0000 </r>
       <r>  -32.2097    1.0000 </r>
       <r>  -32.1855    1.0000 </r>
       <r>  -32.1677    1.0000 </r>
       <r>  -32.1588    1.0000 </r>
       <r>  -32.0895    1.0000 </r>
       <r>  -32.0565    1.0000 </r>
       <r>  -32.0419    1.0000 </r>
       <r>  -32.0368    1.0000 </r>
       <r>  -32.0166    1.0000 </r>
       <r>  -32.0008    1.0000 </r>
       <r>  -31.9844    1.0000 </r>
       <r>  -31.9808    1.0000 </r>
       <r>  -31.9584    1.0000 </r>
       <r>   -5.9768    1.0000 </r>
       <r>   -5.0163    1.0000 </r>
       <r>   -3.5511    1.0000 </r>
       <r>   -3.3206    1.0000 </r>
       <r>   -3.1295    1.0000 </r>
       <r>   -2.8099    1.0000 </r>
       <r>   -2.6842    1.0000 </r>
       <r>   -2.6622    1.0000 </r>
       <r>   -2.5323    1.0000 </r>
       <r>   -2.5258    1.0000 </r>
       <r>   -2.4211    1.0000 </r>
       <r>   -2.4161    1.0000 </r>
       <r>   -2.3297    1.0000 </r>
       <r>   -2.2382    1.0000 </r>
       <r>   -2.1077    1.0000 </r>
       <r>   -1.9855    1.0000 </r>
       <r>   -1.9687    1.0000 </r>
       <r>   -1.9546    1.0000 </r>
       <r>   -1.8753    1.0000 </r>
       <r>   -1.7757    1.0000 </r>
       <r>   -1.6120    1.0000 </r>
       <r>   -1.6066    1.0000 </r>
       <r>   -1.4889    1.0000 </r>
       <r>   -1.4554    1.0000 </r>
       <r>   -0.7013    1.0000 </r>
       <r>   -0.6941    1.0000 </r>
       <r>   -0.5356    1.0000 </r>
       <r>   -0.5203    1.0000 </r>
       <r>   -0.4991    1.0000 </r>
       <r>   -0.4010    1.0000 </r>
       <r>   -0.3592    1.0000 </r>
       <r>   -0.3295    1.0000 </r>
       <r>   -0.1503    1.0000 </r>
       <r>   -0.1090    1.0000 </r>
       <r>    0.0051    1.0000 </r>
       <r>    0.0194    1.0000 </r>
       <r>    0.0631    1.0000 </r>
       <r>    0.1995    1.0000 </r>
       <r>    0.2108    1.0000 </r>
       <r>    0.2389    1.0000 </r>
       <r>    0.4052    1.0000 </r>
       <r>    0.4232    1.0000 </r>
       <r>    0.4434    1.0000 </r>
       <r>    0.5101    1.0000 </r>
       <r>    0.5546    1.0000 </r>
       <r>    0.6554    1.0000 </r>
       <r>    0.7458    1.0000 </r>
       <r>    0.7587    1.0000 </r>
       <r>    0.8018    1.0000 </r>
       <r>    0.9155    1.0000 </r>
       <r>    1.0817    1.0001 </r>
       <r>    1.1049    1.0004 </r>
       <r>    1.1681    1.0063 </r>
       <r>    1.2356    1.0318 </r>
       <r>    1.2974    0.9848 </r>
       <r>    1.3642    0.5941 </r>
       <r>    1.5261   -0.0274 </r>
       <r>    1.5538   -0.0151 </r>
       <r>    1.5661   -0.0107 </r>
       <r>    1.6162   -0.0017 </r>
       <r>    1.6217   -0.0014 </r>
       <r>    1.6557   -0.0003 </r>
       <r>    1.6965   -0.0000 </r>
       <r>    1.7493   -0.0000 </r>
       <r>    1.7954   -0.0000 </r>
       <r>    1.8470   -0.0000 </r>
       <r>    1.8828   -0.0000 </r>
       <r>    1.9620   -0.0000 </r>
       <r>    2.1125   -0.0000 </r>
       <r>    2.1802   -0.0000 </r>
       <r>    2.1901   -0.0000 </r>
       <r>    2.2107   -0.0000 </r>
       <r>    2.2728   -0.0000 </r>
       <r>    2.3744   -0.0000 </r>
       <r>    2.4359   -0.0000 </r>
       <r>    2.8062   -0.0000 </r>
       <r>    2.8449   -0.0000 </r>
       <r>    2.8559   -0.0000 </r>
       <r>    3.0510   -0.0000 </r>
       <r>    3.1417   -0.0000 </r>
       <r>    3.2422   -0.0000 </r>
       <r>    3.2723   -0.0000 </r>
       <r>    3.3135   -0.0000 </r>
       <r>    3.3497   -0.0000 </r>
       <r>    3.3713   -0.0000 </r>
       <r>    3.3996   -0.0000 </r>
       <r>    3.4177   -0.0000 </r>
       <r>    3.4310   -0.0000 </r>
       <r>    3.4505   -0.0000 </r>
       <r>    3.4896   -0.0000 </r>
      </set>
      <set comment="kpoint 3">
       <r>  -33.5427    1.0000 </r>
       <r>  -33.5387    1.0000 </r>
       <r>  -33.5378    1.0000 </r>
       <r>  -33.5268    1.0000 </r>
       <r>  -33.5244    1.0000 </r>
       <r>  -33.5187    1.0000 </r>
       <r>  -33.5151    1.0000 </r>
       <r>  -33.5108    1.0000 </r>
       <r>  -33.5087    1.0000 </r>
       <r>  -33.5017    1.0000 </r>
       <r>  -33.4901    1.0000 </r>
       <r>  -33.4859    1.0000 </r>
       <r>  -33.4745    1.0000 </r>
       <r>  -33.4735    1.0000 </r>
       <r>  -33.4180    1.0000 </r>
       <r>  -33.4166    1.0000 </r>
       <r>  -33.3884    1.0000 </r>
       <r>  -33.3879    1.0000 </r>
       <r>  -33.3416    1.0000 </r>
       <r>  -33.3300    1.0000 </r>
       <r>  -33.3239    1.0000 </r>
       <r>  -33.3168    1.0000 </r>
       <r>  -33.2904    1.0000 </r>
       <r>  -33.2697    1.0000 </r>
       <r>  -32.8408    1.0000 </r>
       <r>  -32.8346    1.0000 </r>
       <r>  -32.8291    1.0000 </r>
       <r>  -32.8217    1.0000 </r>
       <r>  -32.8189    1.0000 </r>
       <r>  -32.7841    1.0000 </r>
       <r>  -32.7641    1.0000 </r>
       <r>  -32.7172    1.0000 </r>
       <r>  -32.6996    1.0000 </r>
       <r>  -32.6916    1.0000 </r>
       <r>  -32.6771    1.0000 </r>
       <r>  -32.6718    1.0000 </r>
       <r>  -32.6006    1.0000 </r>
       <r>  -32.5637    1.0000 </r>
       <r>  -32.5448    1.0000 </r>
       <r>  -32.5401    1.0000 </r>
       <r>  -32.5326    1.0000 </r>
       <r>  -32.4874    1.0000 </r>
       <r>  -32.4624    1.0000 </r>
       <r>  -32.4475    1.0000 </r>
       <r>  -32.4401    1.0000 </r>
       <r>  -32.4214    1.0000 </r>
       <r>  -32.4100    1.0000 </r>
       <r>  -32.4020    1.0000 </r>
       <r>  -32.3952    1.0000 </r>
       <r>  -32.3873    1.0000 </r>
       <r>  -32.3605    1.0000 </r>
       <r>  -32.3555    1.0000 </r>
       <r>  -32.3206    1.0000 </r>
       <r>  -32.2983    1.0000 </r>
       <r>  -32.2579    1.0000 </r>
       <r>  -32.2496    1.0000 </r>
       <r>  -32.2256    1.0000 </r>
       <r>  -32.2207    1.0000 </r>
       <r>  -32.1987    1.0000 </r>
       <r>  -32.1788    1.0000 </r>
       <r>  -32.1713    1.0000 </r>
       <r>  -32.1388    1.0000 </r>
       <r>  -32.1034    1.0000 </r>
       <r>  -32.0868    1.0000 </r>
       <r>  -32.0556    1.0000 </r>
       <r>  -32.0478    1.0000 </r>
       <r>  -32.0404    1.0000 </r>
       <r>  -32.0355    1.0000 </r>
       <r>  -32.0242    1.0000 </r>
       <r>  -32.0033    1.0000 </r>
       <r>  -31.9792    1.0000 </r>
       <r>  -31.9694    1.0000 </r>
       <r>   -5.3435    1.0000 </r>
       <r>   -4.4900    1.0000 </r>
       <r>   -4.3946    1.0000 </r>
       <r>   -3.7706    1.0000 </r>
       <r>   -3.2153    1.0000 </r>
       <r>   -2.9208    1.0000 </r>
       <r>   -2.3145    1.0000 </r>
       <r>   -2.3056    1.0000 </r>
       <r>   -2.2122    1.0000 </r>
       <r>   -2.1958    1.0000 </r>
       <r>   -2.1862    1.0000 </r>
       <r>   -2.1106    1.0000 </r>
       <r>   -2.0678    1.0000 </r>
       <r>   -2.0454    1.0000 </r>
       <r>   -1.8388    1.0000 </r>
       <r>   -1.7575    1.0000 </r>
       <r>   -1.6850    1.0000 </r>
       <r>   -1.5716    1.0000 </r>
       <r>   -1.5622    1.0000 </r>
       <r>   -1.5450    1.0000 </r>
       <r>   -1.5329    1.0000 </r>
       <r>   -1.4704    1.0000 </r>
       <r>   -1.4148    1.0000 </r>
       <r>   -1.0146    1.0000 </r>
       <r>   -1.0056    1.0000 </r>
       <r>   -0.9605    1.0000 </r>
       <r>   -0.8956    1.0000 </r>
       <r>   -0.5240    1.0000 </r>
       <r>   -0.5141    1.0000 </r>
       <r>   -0.3352    1.0000 </r>
       <r>   -0.3232    1.0000 </r>
       <r>   -0.2408    1.0000 </r>
       <r>   -0.2202    1.0000 </r>
       <r>   -0.1654    1.0000 </r>
       <r>   -0.1308    1.0000 </r>
       <r>   -0.0650    1.0000 </r>
       <r>   -0.0548    1.0000 </r>
       <r>    0.1090    1.0000 </r>
       <r>    0.1395    1.0000 </r>
       <r>    0.2931    1.0000 </r>
       <r>    0.3102    1.0000 </r>
       <r>    0.3840    1.0000 </r>
       <r>    0.5335    1.0000 </r>
       <r>    0.5569    1.0000 </r>
       <r>    0.5978    1.0000 </r>
       <r>    0.6075    1.0000 </r>
       <r>    0.6499    1.0000 </r>
       <r>    0.7006    1.0000 </r>
       <r>    0.7078    1.0000 </r>
       <r>    0.7368    1.0000 </r>
       <r>    0.8446    1.0000 </r>
       <r>    0.8809    1.0000 </r>
       <r>    0.9259    1.0000 </r>
       <r>    0.9560    1.0000 </r>
       <r>    0.9852    1.0000 </r>
       <r>    1.0314    1.0000 </r>
       <r>    1.1344    1.0017 </r>
       <r>    1.1521    1.0035 </r>
       <r>    1.2024    1.0172 </r>
       <r>    1.2278    1.0287 </r>
       <r>    1.2579    1.0351 </r>
       <r>    1.2754    1.0252 </r>
       <r>    1.4356    0.0793 </r>
       <r>    1.5093   -0.0338 </r>
       <r>    1.5776   -0.0074 </r>
       <r>    1.6546   -0.0003 </r>
       <r>    1.6659   -0.0002 </r>
       <r>    1.7423   -0.0000 </r>
       <r>    1.8393   -0.0000 </r>
       <r>    1.8504   -0.0000 </r>
       <r>    2.2649   -0.0000 </r>
       <r>    2.3252   -0.0000 </r>
       <r>    2.3342   -0.0000 </r>
       <r>    2.4069   -0.0000 </r>
       <r>    2.4632   -0.0000 </r>
       <r>    2.5288   -0.0000 </r>
       <r>    2.6259   -0.0000 </r>
       <r>    2.8000   -0.0000 </r>
       <r>    2.8322   -0.0000 </r>
       <r>    2.8484   -0.0000 </r>
       <r>    2.8528   -0.0000 </r>
       <r>    2.8830   -0.0000 </r>
       <r>    3.1235   -0.0000 </r>
       <r>    3.2165   -0.0000 </r>
       <r>    3.2720   -0.0000 </r>
       <r>    3.3034   -0.0000 </r>
       <r>    3.3492   -0.0000 </r>
       <r>    3.4895   -0.0000 </r>
       <r>    3.5243   -0.0000 </r>
       <r>    3.5832   -0.0000 </r>
      </set>
      <set comment="kpoint 4">
       <r>  -33.5738    1.0000 </r>
       <r>  -33.5675    1.0000 </r>
       <r>  -33.5505    1.0000 </r>
       <r>  -33.5487    1.0000 </r>
       <r>  -33.5448    1.0000 </r>
       <r>  -33.5389    1.0000 </r>
       <r>  -33.5377    1.0000 </r>
       <r>  -33.5328    1.0000 </r>
       <r>  -33.5272    1.0000 </r>
       <r>  -33.5215    1.0000 </r>
       <r>  -33.5066    1.0000 </r>
       <r>  -33.5037    1.0000 </r>
       <r>  -33.4961    1.0000 </r>
       <r>  -33.4920    1.0000 </r>
       <r>  -33.4281    1.0000 </r>
       <r>  -33.4181    1.0000 </r>
       <r>  -33.3608    1.0000 </r>
       <r>  -33.3553    1.0000 </r>
       <r>  -33.2960    1.0000 </r>
       <r>  -33.2903    1.0000 </r>
       <r>  -33.2848    1.0000 </r>
       <r>  -33.2819    1.0000 </r>
       <r>  -33.2441    1.0000 </r>
       <r>  -33.2328    1.0000 </r>
       <r>  -32.8783    1.0000 </r>
       <r>  -32.8680    1.0000 </r>
       <r>  -32.8614    1.0000 </r>
       <r>  -32.8588    1.0000 </r>
       <r>  -32.8512    1.0000 </r>
       <r>  -32.8477    1.0000 </r>
       <r>  -32.7450    1.0000 </r>
       <r>  -32.6874    1.0000 </r>
       <r>  -32.6824    1.0000 </r>
       <r>  -32.6716    1.0000 </r>
       <r>  -32.6599    1.0000 </r>
       <r>  -32.6536    1.0000 </r>
       <r>  -32.6155    1.0000 </r>
       <r>  -32.5932    1.0000 </r>
       <r>  -32.5499    1.0000 </r>
       <r>  -32.5186    1.0000 </r>
       <r>  -32.5033    1.0000 </r>
       <r>  -32.4712    1.0000 </r>
       <r>  -32.4499    1.0000 </r>
       <r>  -32.4160    1.0000 </r>
       <r>  -32.4116    1.0000 </r>
       <r>  -32.3994    1.0000 </r>
       <r>  -32.3936    1.0000 </r>
       <r>  -32.3776    1.0000 </r>
       <r>  -32.3743    1.0000 </r>
       <r>  -32.3558    1.0000 </r>
       <r>  -32.3329    1.0000 </r>
       <r>  -32.3226    1.0000 </r>
       <r>  -32.3030    1.0000 </r>
       <r>  -32.2865    1.0000 </r>
       <r>  -32.2737    1.0000 </r>
       <r>  -32.2647    1.0000 </r>
       <r>  -32.2528    1.0000 </r>
       <r>  -32.2368    1.0000 </r>
       <r>  -32.2283    1.0000 </r>
       <r>  -32.2162    1.0000 </r>
       <r>  -32.1805    1.0000 </r>
       <r>  -32.1610    1.0000 </r>
       <r>  -32.1541    1.0000 </r>
       <r>  -32.0969    1.0000 </r>
       <r>  -32.0593    1.0000 </r>
       <r>  -32.0476    1.0000 </r>
       <r>  -32.0390    1.0000 </r>
       <r>  -32.0109    1.0000 </r>
       <r>  -31.9992    1.0000 </r>
       <r>  -31.9915    1.0000 </r>
       <r>  -31.9742    1.0000 </r>
       <r>  -31.9554    1.0000 </r>
       <r>   -5.9930    1.0000 </r>
       <r>   -5.0345    1.0000 </r>
       <r>   -3.5770    1.0000 </r>
       <r>   -3.4689    1.0000 </r>
       <r>   -3.2300    1.0000 </r>
       <r>   -2.8899    1.0000 </r>
       <r>   -2.6910    1.0000 </r>
       <r>   -2.6089    1.0000 </r>
       <r>   -2.5338    1.0000 </r>
       <r>   -2.5243    1.0000 </r>
       <r>   -2.4409    1.0000 </r>
       <r>   -2.3273    1.0000 </r>
       <r>   -2.2877    1.0000 </r>
       <r>   -2.2678    1.0000 </r>
       <r>   -2.0802    1.0000 </r>
       <r>   -2.0382    1.0000 </r>
       <r>   -2.0119    1.0000 </r>
       <r>   -1.8088    1.0000 </r>
       <r>   -1.7974    1.0000 </r>
       <r>   -1.7809    1.0000 </r>
       <r>   -1.6846    1.0000 </r>
       <r>   -1.6338    1.0000 </r>
       <r>   -1.6144    1.0000 </r>
       <r>   -1.5008    1.0000 </r>
       <r>   -0.7597    1.0000 </r>
       <r>   -0.7467    1.0000 </r>
       <r>   -0.5532    1.0000 </r>
       <r>   -0.5431    1.0000 </r>
       <r>   -0.4975    1.0000 </r>
       <r>   -0.4685    1.0000 </r>
       <r>   -0.3986    1.0000 </r>
       <r>   -0.3235    1.0000 </r>
       <r>   -0.2182    1.0000 </r>
       <r>   -0.1620    1.0000 </r>
       <r>   -0.1479    1.0000 </r>
       <r>   -0.0419    1.0000 </r>
       <r>    0.0478    1.0000 </r>
       <r>    0.0507    1.0000 </r>
       <r>    0.2789    1.0000 </r>
       <r>    0.2907    1.0000 </r>
       <r>    0.3051    1.0000 </r>
       <r>    0.5151    1.0000 </r>
       <r>    0.5582    1.0000 </r>
       <r>    0.5870    1.0000 </r>
       <r>    0.6263    1.0000 </r>
       <r>    0.6884    1.0000 </r>
       <r>    0.7092    1.0000 </r>
       <r>    0.7218    1.0000 </r>
       <r>    0.9390    1.0000 </r>
       <r>    1.0852    1.0002 </r>
       <r>    1.1472    1.0029 </r>
       <r>    1.1718    1.0071 </r>
       <r>    1.1929    1.0135 </r>
       <r>    1.2690    1.0306 </r>
       <r>    1.3113    0.9376 </r>
       <r>    1.3737    0.5148 </r>
       <r>    1.4828   -0.0312 </r>
       <r>    1.5366   -0.0226 </r>
       <r>    1.5667   -0.0105 </r>
       <r>    1.5950   -0.0040 </r>
       <r>    1.6606   -0.0002 </r>
       <r>    1.6927   -0.0000 </r>
       <r>    1.7235   -0.0000 </r>
       <r>    1.7529   -0.0000 </r>
       <r>    1.8402   -0.0000 </r>
       <r>    1.9124   -0.0000 </r>
       <r>    1.9732   -0.0000 </r>
       <r>    2.0096   -0.0000 </r>
       <r>    2.0666   -0.0000 </r>
       <r>    2.1317   -0.0000 </r>
       <r>    2.1646   -0.0000 </r>
       <r>    2.3172   -0.0000 </r>
       <r>    2.3767   -0.0000 </r>
       <r>    2.5229   -0.0000 </r>
       <r>    2.6219   -0.0000 </r>
       <r>    2.8840   -0.0000 </r>
       <r>    2.9180   -0.0000 </r>
       <r>    2.9318   -0.0000 </r>
       <r>    3.0067   -0.0000 </r>
       <r>    3.0584   -0.0000 </r>
       <r>    3.1171   -0.0000 </r>
       <r>    3.1669   -0.0000 </r>
       <r>    3.1902   -0.0000 </r>
       <r>    3.2097   -0.0000 </r>
       <r>    3.2564   -0.0000 </r>
       <r>    3.3246   -0.0000 </r>
       <r>    3.3462   -0.0000 </r>
       <r>    3.3883   -0.0000 </r>
       <r>    3.4092   -0.0000 </r>
       <r>    3.5077   -0.0000 </r>
      </set>
      <set comment="kpoint 5">
       <r>  -33.5525    1.0000 </r>
       <r>  -33.5465    1.0000 </r>
       <r>  -33.5401    1.0000 </r>
       <r>  -33.5362    1.0000 </r>
       <r>  -33.5324    1.0000 </r>
       <r>  -33.5290    1.0000 </r>
       <r>  -33.5274    1.0000 </r>
       <r>  -33.5265    1.0000 </r>
       <r>  -33.5220    1.0000 </r>
       <r>  -33.5163    1.0000 </r>
       <r>  -33.5032    1.0000 </r>
       <r>  -33.5020    1.0000 </r>
       <r>  -33.4937    1.0000 </r>
       <r>  -33.4912    1.0000 </r>
       <r>  -33.4329    1.0000 </r>
       <r>  -33.4218    1.0000 </r>
       <r>  -33.3572    1.0000 </r>
       <r>  -33.3505    1.0000 </r>
       <r>  -33.3184    1.0000 </r>
       <r>  -33.3137    1.0000 </r>
       <r>  -33.3009    1.0000 </r>
       <r>  -33.2855    1.0000 </r>
       <r>  -33.2735    1.0000 </r>
       <r>  -33.2614    1.0000 </r>
       <r>  -32.8629    1.0000 </r>
       <r>  -32.8542    1.0000 </r>
       <r>  -32.8448    1.0000 </r>
       <r>  -32.8411    1.0000 </r>
       <r>  -32.8340    1.0000 </r>
       <r>  -32.8251    1.0000 </r>
       <r>  -32.7443    1.0000 </r>
       <r>  -32.7212    1.0000 </r>
       <r>  -32.6749    1.0000 </r>
       <r>  -32.6554    1.0000 </r>
       <r>  -32.6460    1.0000 </r>
       <r>  -32.6356    1.0000 </r>
       <r>  -32.6186    1.0000 </r>
       <r>  -32.6117    1.0000 </r>
       <r>  -32.5895    1.0000 </r>
       <r>  -32.5393    1.0000 </r>
       <r>  -32.5082    1.0000 </r>
       <r>  -32.4915    1.0000 </r>
       <r>  -32.4575    1.0000 </r>
       <r>  -32.4470    1.0000 </r>
       <r>  -32.4257    1.0000 </r>
       <r>  -32.4101    1.0000 </r>
       <r>  -32.4054    1.0000 </r>
       <r>  -32.3959    1.0000 </r>
       <r>  -32.3752    1.0000 </r>
       <r>  -32.3430    1.0000 </r>
       <r>  -32.3337    1.0000 </r>
       <r>  -32.3161    1.0000 </r>
       <r>  -32.3057    1.0000 </r>
       <r>  -32.2938    1.0000 </r>
       <r>  -32.2847    1.0000 </r>
       <r>  -32.2727    1.0000 </r>
       <r>  -32.2273    1.0000 </r>
       <r>  -32.2231    1.0000 </r>
       <r>  -32.2152    1.0000 </r>
       <r>  -32.2026    1.0000 </r>
       <r>  -32.1882    1.0000 </r>
       <r>  -32.1397    1.0000 </r>
       <r>  -32.1346    1.0000 </r>
       <r>  -32.0960    1.0000 </r>
       <r>  -32.0590    1.0000 </r>
       <r>  -32.0479    1.0000 </r>
       <r>  -32.0380    1.0000 </r>
       <r>  -32.0172    1.0000 </r>
       <r>  -32.0019    1.0000 </r>
       <r>  -31.9937    1.0000 </r>
       <r>  -31.9777    1.0000 </r>
       <r>  -31.9661    1.0000 </r>
       <r>   -5.7742    1.0000 </r>
       <r>   -4.8389    1.0000 </r>
       <r>   -3.4193    1.0000 </r>
       <r>   -3.3252    1.0000 </r>
       <r>   -3.1996    1.0000 </r>
       <r>   -3.0155    1.0000 </r>
       <r>   -2.9387    1.0000 </r>
       <r>   -2.6546    1.0000 </r>
       <r>   -2.6490    1.0000 </r>
       <r>   -2.5994    1.0000 </r>
       <r>   -2.2703    1.0000 </r>
       <r>   -2.2146    1.0000 </r>
       <r>   -2.1363    1.0000 </r>
       <r>   -2.1244    1.0000 </r>
       <r>   -1.9578    1.0000 </r>
       <r>   -1.8552    1.0000 </r>
       <r>   -1.8008    1.0000 </r>
       <r>   -1.6952    1.0000 </r>
       <r>   -1.6708    1.0000 </r>
       <r>   -1.6185    1.0000 </r>
       <r>   -1.5298    1.0000 </r>
       <r>   -1.4724    1.0000 </r>
       <r>   -1.4151    1.0000 </r>
       <r>   -1.3443    1.0000 </r>
       <r>   -0.8199    1.0000 </r>
       <r>   -0.5596    1.0000 </r>
       <r>   -0.5417    1.0000 </r>
       <r>   -0.5294    1.0000 </r>
       <r>   -0.5063    1.0000 </r>
       <r>   -0.4905    1.0000 </r>
       <r>   -0.4618    1.0000 </r>
       <r>   -0.3560    1.0000 </r>
       <r>   -0.2598    1.0000 </r>
       <r>   -0.1719    1.0000 </r>
       <r>   -0.0489    1.0000 </r>
       <r>   -0.0210    1.0000 </r>
       <r>    0.0427    1.0000 </r>
       <r>    0.0990    1.0000 </r>
       <r>    0.1737    1.0000 </r>
       <r>    0.2391    1.0000 </r>
       <r>    0.3010    1.0000 </r>
       <r>    0.3343    1.0000 </r>
       <r>    0.3820    1.0000 </r>
       <r>    0.4993    1.0000 </r>
       <r>    0.5242    1.0000 </r>
       <r>    0.5461    1.0000 </r>
       <r>    0.6077    1.0000 </r>
       <r>    0.6853    1.0000 </r>
       <r>    0.8420    1.0000 </r>
       <r>    0.9630    1.0000 </r>
       <r>    0.9902    1.0000 </r>
       <r>    1.0198    1.0000 </r>
       <r>    1.0708    1.0001 </r>
       <r>    1.0930    1.0002 </r>
       <r>    1.1156    1.0007 </r>
       <r>    1.2195    1.0250 </r>
       <r>    1.2757    1.0248 </r>
       <r>    1.3706    0.5409 </r>
       <r>    1.4175    0.1765 </r>
       <r>    1.4304    0.1041 </r>
       <r>    1.4876   -0.0336 </r>
       <r>    1.5227   -0.0289 </r>
       <r>    1.5846   -0.0059 </r>
       <r>    1.6476   -0.0004 </r>
       <r>    1.7475   -0.0000 </r>
       <r>    1.8084   -0.0000 </r>
       <r>    1.9285   -0.0000 </r>
       <r>    1.9426   -0.0000 </r>
       <r>    2.0173   -0.0000 </r>
       <r>    2.0402   -0.0000 </r>
       <r>    2.0845   -0.0000 </r>
       <r>    2.1570   -0.0000 </r>
       <r>    2.2737   -0.0000 </r>
       <r>    2.3360   -0.0000 </r>
       <r>    2.3637   -0.0000 </r>
       <r>    2.5503   -0.0000 </r>
       <r>    2.7401   -0.0000 </r>
       <r>    2.7750   -0.0000 </r>
       <r>    2.8276   -0.0000 </r>
       <r>    2.8356   -0.0000 </r>
       <r>    2.9287   -0.0000 </r>
       <r>    3.1212   -0.0000 </r>
       <r>    3.2206   -0.0000 </r>
       <r>    3.2455   -0.0000 </r>
       <r>    3.3207   -0.0000 </r>
       <r>    3.3736   -0.0000 </r>
       <r>    3.4229   -0.0000 </r>
       <r>    3.4511   -0.0000 </r>
       <r>    3.5285   -0.0000 </r>
       <r>    3.6070   -0.0000 </r>
      </set>
      <set comment="kpoint 6">
       <r>  -33.5370    1.0000 </r>
       <r>  -33.5308    1.0000 </r>
       <r>  -33.5292    1.0000 </r>
       <r>  -33.5209    1.0000 </r>
       <r>  -33.5137    1.0000 </r>
       <r>  -33.5125    1.0000 </r>
       <r>  -33.5120    1.0000 </r>
       <r>  -33.5011    1.0000 </r>
       <r>  -33.4951    1.0000 </r>
       <r>  -33.4938    1.0000 </r>
       <r>  -33.4842    1.0000 </r>
       <r>  -33.4821    1.0000 </r>
       <r>  -33.4724    1.0000 </r>
       <r>  -33.4705    1.0000 </r>
       <r>  -33.4227    1.0000 </r>
       <r>  -33.4195    1.0000 </r>
       <r>  -33.3865    1.0000 </r>
       <r>  -33.3851    1.0000 </r>
       <r>  -33.3507    1.0000 </r>
       <r>  -33.3461    1.0000 </r>
       <r>  -33.3380    1.0000 </r>
       <r>  -33.3266    1.0000 </r>
       <r>  -33.3126    1.0000 </r>
       <r>  -33.2916    1.0000 </r>
       <r>  -32.8376    1.0000 </r>
       <r>  -32.8224    1.0000 </r>
       <r>  -32.8125    1.0000 </r>
       <r>  -32.7943    1.0000 </r>
       <r>  -32.7924    1.0000 </r>
       <r>  -32.7716    1.0000 </r>
       <r>  -32.7590    1.0000 </r>
       <r>  -32.7306    1.0000 </r>
       <r>  -32.7049    1.0000 </r>
       <r>  -32.6834    1.0000 </r>
       <r>  -32.6640    1.0000 </r>
       <r>  -32.6537    1.0000 </r>
       <r>  -32.6301    1.0000 </r>
       <r>  -32.6073    1.0000 </r>
       <r>  -32.5785    1.0000 </r>
       <r>  -32.5445    1.0000 </r>
       <r>  -32.5376    1.0000 </r>
       <r>  -32.4991    1.0000 </r>
       <r>  -32.4817    1.0000 </r>
       <r>  -32.4690    1.0000 </r>
       <r>  -32.4569    1.0000 </r>
       <r>  -32.4444    1.0000 </r>
       <r>  -32.4278    1.0000 </r>
       <r>  -32.4081    1.0000 </r>
       <r>  -32.3876    1.0000 </r>
       <r>  -32.3643    1.0000 </r>
       <r>  -32.3478    1.0000 </r>
       <r>  -32.3283    1.0000 </r>
       <r>  -32.3097    1.0000 </r>
       <r>  -32.3022    1.0000 </r>
       <r>  -32.2645    1.0000 </r>
       <r>  -32.2392    1.0000 </r>
       <r>  -32.2299    1.0000 </r>
       <r>  -32.2163    1.0000 </r>
       <r>  -32.2002    1.0000 </r>
       <r>  -32.1836    1.0000 </r>
       <r>  -32.1576    1.0000 </r>
       <r>  -32.1243    1.0000 </r>
       <r>  -32.0966    1.0000 </r>
       <r>  -32.0928    1.0000 </r>
       <r>  -32.0597    1.0000 </r>
       <r>  -32.0495    1.0000 </r>
       <r>  -32.0431    1.0000 </r>
       <r>  -32.0277    1.0000 </r>
       <r>  -32.0181    1.0000 </r>
       <r>  -31.9955    1.0000 </r>
       <r>  -31.9859    1.0000 </r>
       <r>  -31.9756    1.0000 </r>
       <r>   -5.1550    1.0000 </r>
       <r>   -4.3074    1.0000 </r>
       <r>   -4.2378    1.0000 </r>
       <r>   -3.5840    1.0000 </r>
       <r>   -3.0452    1.0000 </r>
       <r>   -3.0025    1.0000 </r>
       <r>   -2.7494    1.0000 </r>
       <r>   -2.7156    1.0000 </r>
       <r>   -2.4513    1.0000 </r>
       <r>   -2.0136    1.0000 </r>
       <r>   -1.9974    1.0000 </r>
       <r>   -1.9305    1.0000 </r>
       <r>   -1.8934    1.0000 </r>
       <r>   -1.8389    1.0000 </r>
       <r>   -1.6685    1.0000 </r>
       <r>   -1.6399    1.0000 </r>
       <r>   -1.5505    1.0000 </r>
       <r>   -1.4917    1.0000 </r>
       <r>   -1.4609    1.0000 </r>
       <r>   -1.3729    1.0000 </r>
       <r>   -1.3077    1.0000 </r>
       <r>   -1.2740    1.0000 </r>
       <r>   -1.2118    1.0000 </r>
       <r>   -0.9842    1.0000 </r>
       <r>   -0.9757    1.0000 </r>
       <r>   -0.9340    1.0000 </r>
       <r>   -0.8686    1.0000 </r>
       <r>   -0.4804    1.0000 </r>
       <r>   -0.4485    1.0000 </r>
       <r>   -0.4090    1.0000 </r>
       <r>   -0.3007    1.0000 </r>
       <r>   -0.2467    1.0000 </r>
       <r>   -0.2353    1.0000 </r>
       <r>   -0.1631    1.0000 </r>
       <r>   -0.1134    1.0000 </r>
       <r>   -0.0247    1.0000 </r>
       <r>    0.0261    1.0000 </r>
       <r>    0.0322    1.0000 </r>
       <r>    0.1116    1.0000 </r>
       <r>    0.2055    1.0000 </r>
       <r>    0.2364    1.0000 </r>
       <r>    0.3332    1.0000 </r>
       <r>    0.3567    1.0000 </r>
       <r>    0.3917    1.0000 </r>
       <r>    0.4206    1.0000 </r>
       <r>    0.4483    1.0000 </r>
       <r>    0.5110    1.0000 </r>
       <r>    0.5505    1.0000 </r>
       <r>    0.6238    1.0000 </r>
       <r>    0.6528    1.0000 </r>
       <r>    0.6775    1.0000 </r>
       <r>    0.6929    1.0000 </r>
       <r>    0.7177    1.0000 </r>
       <r>    0.7515    1.0000 </r>
       <r>    0.7859    1.0000 </r>
       <r>    0.8145    1.0000 </r>
       <r>    0.8555    1.0000 </r>
       <r>    0.9503    1.0000 </r>
       <r>    1.0160    1.0000 </r>
       <r>    1.0571    1.0000 </r>
       <r>    1.1559    1.0040 </r>
       <r>    1.2587    1.0349 </r>
       <r>    1.3105    0.9411 </r>
       <r>    1.5445   -0.0190 </r>
       <r>    1.6516   -0.0003 </r>
       <r>    1.6959   -0.0000 </r>
       <r>    1.7234   -0.0000 </r>
       <r>    1.7876   -0.0000 </r>
       <r>    1.8316   -0.0000 </r>
       <r>    1.8382   -0.0000 </r>
       <r>    1.9198   -0.0000 </r>
       <r>    2.0189   -0.0000 </r>
       <r>    2.0420   -0.0000 </r>
       <r>    2.1174   -0.0000 </r>
       <r>    2.1376   -0.0000 </r>
       <r>    2.1811   -0.0000 </r>
       <r>    2.4289   -0.0000 </r>
       <r>    2.4824   -0.0000 </r>
       <r>    2.5108   -0.0000 </r>
       <r>    2.6882   -0.0000 </r>
       <r>    2.7208   -0.0000 </r>
       <r>    2.9294   -0.0000 </r>
       <r>    3.1194   -0.0000 </r>
       <r>    3.1554   -0.0000 </r>
       <r>    3.2889   -0.0000 </r>
       <r>    3.3356   -0.0000 </r>
       <r>    3.4830   -0.0000 </r>
       <r>    3.5860   -0.0000 </r>
       <r>    3.6704   -0.0000 </r>
       <r>    3.7087   -0.0000 </r>
      </set>
      <set comment="kpoint 7">
       <r>  -33.5370    1.0000 </r>
       <r>  -33.5310    1.0000 </r>
       <r>  -33.5291    1.0000 </r>
       <r>  -33.5205    1.0000 </r>
       <r>  -33.5149    1.0000 </r>
       <r>  -33.5128    1.0000 </r>
       <r>  -33.5111    1.0000 </r>
       <r>  -33.5008    1.0000 </r>
       <r>  -33.4948    1.0000 </r>
       <r>  -33.4938    1.0000 </r>
       <r>  -33.4851    1.0000 </r>
       <r>  -33.4822    1.0000 </r>
       <r>  -33.4726    1.0000 </r>
       <r>  -33.4700    1.0000 </r>
       <r>  -33.4226    1.0000 </r>
       <r>  -33.4188    1.0000 </r>
       <r>  -33.3869    1.0000 </r>
       <r>  -33.3854    1.0000 </r>
       <r>  -33.3510    1.0000 </r>
       <r>  -33.3456    1.0000 </r>
       <r>  -33.3382    1.0000 </r>
       <r>  -33.3264    1.0000 </r>
       <r>  -33.3127    1.0000 </r>
       <r>  -33.2916    1.0000 </r>
       <r>  -32.8369    1.0000 </r>
       <r>  -32.8254    1.0000 </r>
       <r>  -32.8141    1.0000 </r>
       <r>  -32.7950    1.0000 </r>
       <r>  -32.7851    1.0000 </r>
       <r>  -32.7713    1.0000 </r>
       <r>  -32.7578    1.0000 </r>
       <r>  -32.7321    1.0000 </r>
       <r>  -32.7108    1.0000 </r>
       <r>  -32.6810    1.0000 </r>
       <r>  -32.6621    1.0000 </r>
       <r>  -32.6548    1.0000 </r>
       <r>  -32.6306    1.0000 </r>
       <r>  -32.6083    1.0000 </r>
       <r>  -32.5756    1.0000 </r>
       <r>  -32.5432    1.0000 </r>
       <r>  -32.5371    1.0000 </r>
       <r>  -32.4984    1.0000 </r>
       <r>  -32.4793    1.0000 </r>
       <r>  -32.4662    1.0000 </r>
       <r>  -32.4639    1.0000 </r>
       <r>  -32.4479    1.0000 </r>
       <r>  -32.4290    1.0000 </r>
       <r>  -32.4113    1.0000 </r>
       <r>  -32.3906    1.0000 </r>
       <r>  -32.3588    1.0000 </r>
       <r>  -32.3409    1.0000 </r>
       <r>  -32.3275    1.0000 </r>
       <r>  -32.3160    1.0000 </r>
       <r>  -32.3000    1.0000 </r>
       <r>  -32.2646    1.0000 </r>
       <r>  -32.2406    1.0000 </r>
       <r>  -32.2300    1.0000 </r>
       <r>  -32.2189    1.0000 </r>
       <r>  -32.2010    1.0000 </r>
       <r>  -32.1759    1.0000 </r>
       <r>  -32.1575    1.0000 </r>
       <r>  -32.1252    1.0000 </r>
       <r>  -32.0974    1.0000 </r>
       <r>  -32.0904    1.0000 </r>
       <r>  -32.0665    1.0000 </r>
       <r>  -32.0506    1.0000 </r>
       <r>  -32.0422    1.0000 </r>
       <r>  -32.0262    1.0000 </r>
       <r>  -32.0148    1.0000 </r>
       <r>  -32.0037    1.0000 </r>
       <r>  -31.9867    1.0000 </r>
       <r>  -31.9686    1.0000 </r>
       <r>   -5.1586    1.0000 </r>
       <r>   -4.3093    1.0000 </r>
       <r>   -4.2337    1.0000 </r>
       <r>   -3.5811    1.0000 </r>
       <r>   -3.0464    1.0000 </r>
       <r>   -2.9942    1.0000 </r>
       <r>   -2.7595    1.0000 </r>
       <r>   -2.7136    1.0000 </r>
       <r>   -2.4465    1.0000 </r>
       <r>   -2.0081    1.0000 </r>
       <r>   -1.9984    1.0000 </r>
       <r>   -1.9304    1.0000 </r>
       <r>   -1.8978    1.0000 </r>
       <r>   -1.8454    1.0000 </r>
       <r>   -1.6752    1.0000 </r>
       <r>   -1.6388    1.0000 </r>
       <r>   -1.5512    1.0000 </r>
       <r>   -1.4928    1.0000 </r>
       <r>   -1.4538    1.0000 </r>
       <r>   -1.3719    1.0000 </r>
       <r>   -1.3110    1.0000 </r>
       <r>   -1.2752    1.0000 </r>
       <r>   -1.2147    1.0000 </r>
       <r>   -0.9834    1.0000 </r>
       <r>   -0.9718    1.0000 </r>
       <r>   -0.9339    1.0000 </r>
       <r>   -0.8680    1.0000 </r>
       <r>   -0.4831    1.0000 </r>
       <r>   -0.4437    1.0000 </r>
       <r>   -0.4057    1.0000 </r>
       <r>   -0.2917    1.0000 </r>
       <r>   -0.2584    1.0000 </r>
       <r>   -0.2220    1.0000 </r>
       <r>   -0.1550    1.0000 </r>
       <r>   -0.1158    1.0000 </r>
       <r>   -0.0178    1.0000 </r>
       <r>    0.0219    1.0000 </r>
       <r>    0.0407    1.0000 </r>
       <r>    0.0937    1.0000 </r>
       <r>    0.1870    1.0000 </r>
       <r>    0.2244    1.0000 </r>
       <r>    0.3193    1.0000 </r>
       <r>    0.3468    1.0000 </r>
       <r>    0.3768    1.0000 </r>
       <r>    0.4491    1.0000 </r>
       <r>    0.4821    1.0000 </r>
       <r>    0.5089    1.0000 </r>
       <r>    0.5620    1.0000 </r>
       <r>    0.6305    1.0000 </r>
       <r>    0.6463    1.0000 </r>
       <r>    0.6753    1.0000 </r>
       <r>    0.6966    1.0000 </r>
       <r>    0.7044    1.0000 </r>
       <r>    0.7550    1.0000 </r>
       <r>    0.8033    1.0000 </r>
       <r>    0.8414    1.0000 </r>
       <r>    0.8704    1.0000 </r>
       <r>    0.9389    1.0000 </r>
       <r>    0.9975    1.0000 </r>
       <r>    1.0350    1.0000 </r>
       <r>    1.1517    1.0035 </r>
       <r>    1.2573    1.0352 </r>
       <r>    1.3161    0.9172 </r>
       <r>    1.5446   -0.0189 </r>
       <r>    1.6483   -0.0004 </r>
       <r>    1.6807   -0.0001 </r>
       <r>    1.7333   -0.0000 </r>
       <r>    1.7815   -0.0000 </r>
       <r>    1.8267   -0.0000 </r>
       <r>    1.8444   -0.0000 </r>
       <r>    1.9148   -0.0000 </r>
       <r>    2.0282   -0.0000 </r>
       <r>    2.0429   -0.0000 </r>
       <r>    2.1066   -0.0000 </r>
       <r>    2.1411   -0.0000 </r>
       <r>    2.1822   -0.0000 </r>
       <r>    2.4275   -0.0000 </r>
       <r>    2.4913   -0.0000 </r>
       <r>    2.4965   -0.0000 </r>
       <r>    2.6869   -0.0000 </r>
       <r>    2.7285   -0.0000 </r>
       <r>    2.9227   -0.0000 </r>
       <r>    3.1249   -0.0000 </r>
       <r>    3.1466   -0.0000 </r>
       <r>    3.2809   -0.0000 </r>
       <r>    3.3405   -0.0000 </r>
       <r>    3.4834   -0.0000 </r>
       <r>    3.5656   -0.0000 </r>
       <r>    3.6834   -0.0000 </r>
       <r>    3.7004   -0.0000 </r>
      </set>
      <set comment="kpoint 8">
       <r>  -33.5526    1.0000 </r>
       <r>  -33.5465    1.0000 </r>
       <r>  -33.5401    1.0000 </r>
       <r>  -33.5360    1.0000 </r>
       <r>  -33.5331    1.0000 </r>
       <r>  -33.5299    1.0000 </r>
       <r>  -33.5267    1.0000 </r>
       <r>  -33.5256    1.0000 </r>
       <r>  -33.5222    1.0000 </r>
       <r>  -33.5165    1.0000 </r>
       <r>  -33.5038    1.0000 </r>
       <r>  -33.5011    1.0000 </r>
       <r>  -33.4945    1.0000 </r>
       <r>  -33.4908    1.0000 </r>
       <r>  -33.4327    1.0000 </r>
       <r>  -33.4213    1.0000 </r>
       <r>  -33.3577    1.0000 </r>
       <r>  -33.3507    1.0000 </r>
       <r>  -33.3183    1.0000 </r>
       <r>  -33.3133    1.0000 </r>
       <r>  -33.3011    1.0000 </r>
       <r>  -33.2854    1.0000 </r>
       <r>  -33.2735    1.0000 </r>
       <r>  -33.2615    1.0000 </r>
       <r>  -32.8623    1.0000 </r>
       <r>  -32.8557    1.0000 </r>
       <r>  -32.8493    1.0000 </r>
       <r>  -32.8379    1.0000 </r>
       <r>  -32.8300    1.0000 </r>
       <r>  -32.8258    1.0000 </r>
       <r>  -32.7445    1.0000 </r>
       <r>  -32.7205    1.0000 </r>
       <r>  -32.6747    1.0000 </r>
       <r>  -32.6595    1.0000 </r>
       <r>  -32.6444    1.0000 </r>
       <r>  -32.6321    1.0000 </r>
       <r>  -32.6280    1.0000 </r>
       <r>  -32.6059    1.0000 </r>
       <r>  -32.5875    1.0000 </r>
       <r>  -32.5356    1.0000 </r>
       <r>  -32.5049    1.0000 </r>
       <r>  -32.4942    1.0000 </r>
       <r>  -32.4573    1.0000 </r>
       <r>  -32.4482    1.0000 </r>
       <r>  -32.4293    1.0000 </r>
       <r>  -32.4165    1.0000 </r>
       <r>  -32.4074    1.0000 </r>
       <r>  -32.3947    1.0000 </r>
       <r>  -32.3772    1.0000 </r>
       <r>  -32.3418    1.0000 </r>
       <r>  -32.3255    1.0000 </r>
       <r>  -32.3176    1.0000 </r>
       <r>  -32.3063    1.0000 </r>
       <r>  -32.2981    1.0000 </r>
       <r>  -32.2794    1.0000 </r>
       <r>  -32.2694    1.0000 </r>
       <r>  -32.2346    1.0000 </r>
       <r>  -32.2250    1.0000 </r>
       <r>  -32.2116    1.0000 </r>
       <r>  -32.2004    1.0000 </r>
       <r>  -32.1836    1.0000 </r>
       <r>  -32.1450    1.0000 </r>
       <r>  -32.1320    1.0000 </r>
       <r>  -32.0941    1.0000 </r>
       <r>  -32.0664    1.0000 </r>
       <r>  -32.0460    1.0000 </r>
       <r>  -32.0303    1.0000 </r>
[...]
       <r>   -1.3609    1.0000 </r>
       <r>   -1.3020    1.0000 </r>
       <r>   -1.2700    1.0000 </r>
       <r>   -1.0849    1.0000 </r>
       <r>   -1.0255    1.0000 </r>
       <r>   -1.0011    1.0000 </r>
       <r>   -0.9477    1.0000 </r>
       <r>   -0.5634    1.0000 </r>
       <r>   -0.5146    1.0000 </r>
       <r>   -0.4841    1.0000 </r>
       <r>   -0.3628    1.0000 </r>
       <r>   -0.2910    1.0000 </r>
       <r>   -0.2655    1.0000 </r>
       <r>   -0.2251    1.0000 </r>
       <r>   -0.1808    1.0000 </r>
       <r>   -0.1665    1.0000 </r>
       <r>   -0.1169    1.0000 </r>
       <r>   -0.0347    1.0000 </r>
       <r>    0.1506    1.0000 </r>
       <r>    0.1726    1.0000 </r>
       <r>    0.3177    1.0000 </r>
       <r>    0.3646    1.0000 </r>
       <r>    0.3995    1.0000 </r>
       <r>    0.4047    1.0000 </r>
       <r>    0.4679    1.0000 </r>
       <r>    0.5002    1.0000 </r>
       <r>    0.5612    1.0000 </r>
       <r>    0.6058    1.0000 </r>
       <r>    0.6654    1.0000 </r>
       <r>    0.7011    1.0000 </r>
       <r>    0.7141    1.0000 </r>
       <r>    0.7376    1.0000 </r>
       <r>    0.7922    1.0000 </r>
       <r>    0.8362    1.0000 </r>
       <r>    0.8577    1.0000 </r>
       <r>    0.9352    1.0000 </r>
       <r>    0.9512    1.0000 </r>
       <r>    1.0058    1.0000 </r>
       <r>    1.0557    1.0000 </r>
       <r>    1.2041    1.0180 </r>
       <r>    1.2715    1.0288 </r>
       <r>    1.4129    0.2061 </r>
       <r>    1.4486    0.0297 </r>
       <r>    1.6437   -0.0005 </r>
       <r>    1.7057   -0.0000 </r>
       <r>    1.7723   -0.0000 </r>
       <r>    1.8031   -0.0000 </r>
       <r>    1.8711   -0.0000 </r>
       <r>    1.9215   -0.0000 </r>
       <r>    1.9624   -0.0000 </r>
       <r>    1.9817   -0.0000 </r>
       <r>    1.9962   -0.0000 </r>
       <r>    2.0419   -0.0000 </r>
       <r>    2.0942   -0.0000 </r>
       <r>    2.1475   -0.0000 </r>
       <r>    2.2120   -0.0000 </r>
       <r>    2.3663   -0.0000 </r>
       <r>    2.4314   -0.0000 </r>
       <r>    2.5443   -0.0000 </r>
       <r>    2.5927   -0.0000 </r>
       <r>    2.7254   -0.0000 </r>
       <r>    2.8553   -0.0000 </r>
       <r>    3.1395   -0.0000 </r>
       <r>    3.2310   -0.0000 </r>
       <r>    3.3757   -0.0000 </r>
       <r>    3.3982   -0.0000 </r>
       <r>    3.5320   -0.0000 </r>
       <r>    3.5871   -0.0000 </r>
       <r>    3.7102   -0.0000 </r>
       <r>    3.7807   -0.0000 </r>
      </set>
     </set>
    </set>
   </array>
  </eigenvalues>
  <separator name="orbital magnetization" >
   <v name="MAGDIPOLOUT">      0.00000000      0.00000000      0.00000000</v>
  </separator>
  <dos>
   <i name="efermi">      1.37544199 </i>
   <total>
    <array>
     <dimension dim="1">gridpoints</dimension>
     <dimension dim="2">spin</dimension>
     <field>energy</field>
     <field>total</field>
     <field>integrated</field>
     <set>
      <set comment="spin 1">
       <r>   -35.4543     0.0000     0.0000 </r>
       <r>   -35.3166     0.0000     0.0000 </r>
       <r>   -35.1789     0.0000     0.0000 </r>
       <r>   -35.0412     0.0000     0.0000 </r>
       <r>   -34.9035     0.0000     0.0000 </r>
       <r>   -34.7658     0.0000     0.0000 </r>
       <r>   -34.6281     0.0000     0.0000 </r>
       <r>   -34.4904    -0.0000    -0.0000 </r>
       <r>   -34.3527    -0.0000    -0.0000 </r>
       <r>   -34.2150    -0.0000    -0.0000 </r>
       <r>   -34.0773    -0.0000    -0.0000 </r>
       <r>   -33.9395    -0.0000    -0.0000 </r>
       <r>   -33.8018    -0.0747    -0.0103 </r>
       <r>   -33.6641    -5.0667    -0.7080 </r>
       <r>   -33.5264    84.2853    10.8987 </r>
       <r>   -33.3887   169.0958    34.1845 </r>
       <r>   -33.2510    88.8859    46.4247 </r>
       <r>   -33.1133    12.5094    48.1474 </r>
       <r>   -32.9756    -3.1997    47.7068 </r>
       <r>   -32.8379    34.6178    52.4739 </r>
       <r>   -32.7002    95.5423    65.6308 </r>
       <r>   -32.5625    88.4842    77.8157 </r>
       <r>   -32.4248    96.3408    91.0826 </r>
       <r>   -32.2871   117.7466   107.2972 </r>
       <r>   -32.1493   107.8651   122.1510 </r>
       <r>   -32.0116   105.9605   136.7426 </r>
       <r>   -31.8739    55.5453   144.3916 </r>
       <r>   -31.7362    -2.7608   144.0114 </r>
       <r>   -31.5985    -0.0828   144.0000 </r>
       <r>   -31.4608    -0.0000   144.0000 </r>
       <r>   -31.3231    -0.0000   144.0000 </r>
       <r>   -31.1854     0.0000   144.0000 </r>
       <r>   -31.0477     0.0000   144.0000 </r>
       <r>   -30.9100     0.0000   144.0000 </r>
       <r>   -30.7723     0.0000   144.0000 </r>
       <r>   -30.6346     0.0000   144.0000 </r>
       <r>   -30.4969     0.0000   144.0000 </r>
       <r>   -30.3592     0.0000   144.0000 </r>
       <r>   -30.2214     0.0000   144.0000 </r>
       <r>   -30.0837     0.0000   144.0000 </r>
       <r>   -29.9460     0.0000   144.0000 </r>
       <r>   -29.8083     0.0000   144.0000 </r>
       <r>   -29.6706     0.0000   144.0000 </r>
       <r>   -29.5329     0.0000   144.0000 </r>
       <r>   -29.3952     0.0000   144.0000 </r>
       <r>   -29.2575     0.0000   144.0000 </r>
       <r>   -29.1198     0.0000   144.0000 </r>
       <r>   -28.9821     0.0000   144.0000 </r>
       <r>   -28.8444     0.0000   144.0000 </r>
       <r>   -28.7067     0.0000   144.0000 </r>
       <r>   -28.5690     0.0000   144.0000 </r>
       <r>   -28.4312     0.0000   144.0000 </r>
       <r>   -28.2935     0.0000   144.0000 </r>
       <r>   -28.1558     0.0000   144.0000 </r>
       <r>   -28.0181     0.0000   144.0000 </r>
       <r>   -27.8804     0.0000   144.0000 </r>
       <r>   -27.7427     0.0000   144.0000 </r>
       <r>   -27.6050     0.0000   144.0000 </r>
       <r>   -27.4673     0.0000   144.0000 </r>
       <r>   -27.3296     0.0000   144.0000 </r>
       <r>   -27.1919     0.0000   144.0000 </r>
       <r>   -27.0542     0.0000   144.0000 </r>
       <r>   -26.9165     0.0000   144.0000 </r>
       <r>   -26.7788     0.0000   144.0000 </r>
       <r>   -26.6410     0.0000   144.0000 </r>
       <r>   -26.5033     0.0000   144.0000 </r>
       <r>   -26.3656     0.0000   144.0000 </r>
       <r>   -26.2279     0.0000   144.0000 </r>
       <r>   -26.0902     0.0000   144.0000 </r>
       <r>   -25.9525     0.0000   144.0000 </r>
       <r>   -25.8148     0.0000   144.0000 </r>
       <r>   -25.6771     0.0000   144.0000 </r>
       <r>   -25.5394     0.0000   144.0000 </r>
       <r>   -25.4017     0.0000   144.0000 </r>
       <r>   -25.2640     0.0000   144.0000 </r>
       <r>   -25.1263     0.0000   144.0000 </r>
       <r>   -24.9886     0.0000   144.0000 </r>
       <r>   -24.8508     0.0000   144.0000 </r>
       <r>   -24.7131     0.0000   144.0000 </r>
       <r>   -24.5754     0.0000   144.0000 </r>
       <r>   -24.4377     0.0000   144.0000 </r>
       <r>   -24.3000     0.0000   144.0000 </r>
       <r>   -24.1623     0.0000   144.0000 </r>
       <r>   -24.0246     0.0000   144.0000 </r>
       <r>   -23.8869     0.0000   144.0000 </r>
       <r>   -23.7492     0.0000   144.0000 </r>
       <r>   -23.6115     0.0000   144.0000 </r>
       <r>   -23.4738     0.0000   144.0000 </r>
       <r>   -23.3361     0.0000   144.0000 </r>
       <r>   -23.1984     0.0000   144.0000 </r>
       <r>   -23.0606     0.0000   144.0000 </r>
       <r>   -22.9229     0.0000   144.0000 </r>
       <r>   -22.7852     0.0000   144.0000 </r>
       <r>   -22.6475     0.0000   144.0000 </r>
       <r>   -22.5098     0.0000   144.0000 </r>
       <r>   -22.3721     0.0000   144.0000 </r>
       <r>   -22.2344     0.0000   144.0000 </r>
       <r>   -22.0967     0.0000   144.0000 </r>
       <r>   -21.9590     0.0000   144.0000 </r>
       <r>   -21.8213     0.0000   144.0000 </r>
       <r>   -21.6836     0.0000   144.0000 </r>
       <r>   -21.5459     0.0000   144.0000 </r>
       <r>   -21.4082     0.0000   144.0000 </r>
       <r>   -21.2705     0.0000   144.0000 </r>
       <r>   -21.1327     0.0000   144.0000 </r>
       <r>   -20.9950     0.0000   144.0000 </r>
       <r>   -20.8573     0.0000   144.0000 </r>
       <r>   -20.7196     0.0000   144.0000 </r>
       <r>   -20.5819     0.0000   144.0000 </r>
       <r>   -20.4442     0.0000   144.0000 </r>
       <r>   -20.3065     0.0000   144.0000 </r>
       <r>   -20.1688     0.0000   144.0000 </r>
       <r>   -20.0311     0.0000   144.0000 </r>
       <r>   -19.8934     0.0000   144.0000 </r>
       <r>   -19.7557     0.0000   144.0000 </r>
       <r>   -19.6180     0.0000   144.0000 </r>
       <r>   -19.4803     0.0000   144.0000 </r>
       <r>   -19.3425     0.0000   144.0000 </r>
       <r>   -19.2048     0.0000   144.0000 </r>
       <r>   -19.0671     0.0000   144.0000 </r>
       <r>   -18.9294     0.0000   144.0000 </r>
       <r>   -18.7917     0.0000   144.0000 </r>
       <r>   -18.6540     0.0000   144.0000 </r>
       <r>   -18.5163     0.0000   144.0000 </r>
       <r>   -18.3786     0.0000   144.0000 </r>
       <r>   -18.2409     0.0000   144.0000 </r>
       <r>   -18.1032     0.0000   144.0000 </r>
       <r>   -17.9655     0.0000   144.0000 </r>
       <r>   -17.8278     0.0000   144.0000 </r>
       <r>   -17.6901     0.0000   144.0000 </r>
       <r>   -17.5523     0.0000   144.0000 </r>
       <r>   -17.4146     0.0000   144.0000 </r>
       <r>   -17.2769     0.0000   144.0000 </r>
       <r>   -17.1392     0.0000   144.0000 </r>
       <r>   -17.0015     0.0000   144.0000 </r>
       <r>   -16.8638     0.0000   144.0000 </r>
       <r>   -16.7261     0.0000   144.0000 </r>
       <r>   -16.5884     0.0000   144.0000 </r>
       <r>   -16.4507     0.0000   144.0000 </r>
       <r>   -16.3130     0.0000   144.0000 </r>
       <r>   -16.1753     0.0000   144.0000 </r>
       <r>   -16.0376     0.0000   144.0000 </r>
       <r>   -15.8999     0.0000   144.0000 </r>
       <r>   -15.7621     0.0000   144.0000 </r>
       <r>   -15.6244     0.0000   144.0000 </r>
       <r>   -15.4867     0.0000   144.0000 </r>
       <r>   -15.3490     0.0000   144.0000 </r>
       <r>   -15.2113     0.0000   144.0000 </r>
       <r>   -15.0736     0.0000   144.0000 </r>
       <r>   -14.9359     0.0000   144.0000 </r>
       <r>   -14.7982     0.0000   144.0000 </r>
       <r>   -14.6605     0.0000   144.0000 </r>
       <r>   -14.5228     0.0000   144.0000 </r>
       <r>   -14.3851     0.0000   144.0000 </r>
       <r>   -14.2474     0.0000   144.0000 </r>
       <r>   -14.1097     0.0000   144.0000 </r>
       <r>   -13.9720     0.0000   144.0000 </r>
       <r>   -13.8342     0.0000   144.0000 </r>
       <r>   -13.6965     0.0000   144.0000 </r>
       <r>   -13.5588     0.0000   144.0000 </r>
       <r>   -13.4211     0.0000   144.0000 </r>
       <r>   -13.2834     0.0000   144.0000 </r>
       <r>   -13.1457     0.0000   144.0000 </r>
       <r>   -13.0080     0.0000   144.0000 </r>
       <r>   -12.8703     0.0000   144.0000 </r>
       <r>   -12.7326     0.0000   144.0000 </r>
       <r>   -12.5949     0.0000   144.0000 </r>
       <r>   -12.4572     0.0000   144.0000 </r>
       <r>   -12.3195     0.0000   144.0000 </r>
       <r>   -12.1818     0.0000   144.0000 </r>
       <r>   -12.0440     0.0000   144.0000 </r>
       <r>   -11.9063     0.0000   144.0000 </r>
       <r>   -11.7686     0.0000   144.0000 </r>
       <r>   -11.6309     0.0000   144.0000 </r>
       <r>   -11.4932     0.0000   144.0000 </r>
       <r>   -11.3555     0.0000   144.0000 </r>
       <r>   -11.2178     0.0000   144.0000 </r>
       <r>   -11.0801     0.0000   144.0000 </r>
       <r>   -10.9424     0.0000   144.0000 </r>
       <r>   -10.8047     0.0000   144.0000 </r>
       <r>   -10.6670     0.0000   144.0000 </r>
       <r>   -10.5293     0.0000   144.0000 </r>
       <r>   -10.3916     0.0000   144.0000 </r>
       <r>   -10.2538     0.0000   144.0000 </r>
       <r>   -10.1161     0.0000   144.0000 </r>
       <r>    -9.9784     0.0000   144.0000 </r>
       <r>    -9.8407     0.0000   144.0000 </r>
       <r>    -9.7030     0.0000   144.0000 </r>
       <r>    -9.5653     0.0000   144.0000 </r>
       <r>    -9.4276     0.0000   144.0000 </r>
       <r>    -9.2899     0.0000   144.0000 </r>
       <r>    -9.1522     0.0000   144.0000 </r>
       <r>    -9.0145     0.0000   144.0000 </r>
       <r>    -8.8768     0.0000   144.0000 </r>
       <r>    -8.7391     0.0000   144.0000 </r>
       <r>    -8.6014     0.0000   144.0000 </r>
       <r>    -8.4636     0.0000   144.0000 </r>
       <r>    -8.3259     0.0000   144.0000 </r>
       <r>    -8.1882     0.0000   144.0000 </r>
       <r>    -8.0505     0.0000   144.0000 </r>
       <r>    -7.9128     0.0000   144.0000 </r>
       <r>    -7.7751     0.0000   144.0000 </r>
       <r>    -7.6374     0.0000   144.0000 </r>
       <r>    -7.4997     0.0000   144.0000 </r>
       <r>    -7.3620     0.0000   144.0000 </r>
       <r>    -7.2243     0.0000   144.0000 </r>
       <r>    -7.0866    -0.0000   144.0000 </r>
       <r>    -6.9489    -0.0000   144.0000 </r>
       <r>    -6.8112    -0.0000   144.0000 </r>
       <r>    -6.6734    -0.0000   144.0000 </r>
       <r>    -6.5357    -0.0000   144.0000 </r>
       <r>    -6.3980    -0.0048   143.9993 </r>
       <r>    -6.2603     0.0476   144.0059 </r>
       <r>    -6.1226     0.4524   144.0682 </r>
       <r>    -5.9849     1.2375   144.2386 </r>
       <r>    -5.8472     1.3239   144.4209 </r>
       <r>    -5.7095     2.0421   144.7021 </r>
       <r>    -5.5718     0.1211   144.7188 </r>
       <r>    -5.4341     0.2750   144.7567 </r>
       <r>    -5.2964     1.7934   145.0036 </r>
       <r>    -5.1587     3.7267   145.5168 </r>
       <r>    -5.0210     3.1010   145.9439 </r>
       <r>    -4.8833     1.4438   146.1427 </r>
       <r>    -4.7455     1.8150   146.3926 </r>
       <r>    -4.6078     1.7091   146.6280 </r>
       <r>    -4.4701     3.3867   147.0944 </r>
       <r>    -4.3324     5.2017   147.8107 </r>
       <r>    -4.1947     5.8159   148.6116 </r>
       <r>    -4.0570     0.1962   148.6386 </r>
       <r>    -3.9193     0.3239   148.6832 </r>
       <r>    -3.7816     6.7643   149.6147 </r>
       <r>    -3.6439     4.7060   150.2627 </r>
       <r>    -3.5062     5.0198   150.9540 </r>
       <r>    -3.3685     3.7047   151.4642 </r>
       <r>    -3.2308     7.5885   152.5092 </r>
       <r>    -3.0931     8.6322   153.6979 </r>
       <r>    -2.9553    13.0796   155.4990 </r>
       <r>    -2.8176     8.7606   156.7054 </r>
       <r>    -2.6799    11.9415   158.3499 </r>
       <r>    -2.5422    14.8880   160.4001 </r>
       <r>    -2.4045    11.4688   161.9794 </r>
       <r>    -2.2668    14.3026   163.9490 </r>
       <r>    -2.1291    21.2750   166.8787 </r>
       <r>    -1.9914    23.0061   170.0468 </r>
       <r>    -1.8537    22.0454   173.0827 </r>
       <r>    -1.7160    17.6904   175.5187 </r>
       <r>    -1.5783    28.9216   179.5015 </r>
       <r>    -1.4406    36.7202   184.5581 </r>
       <r>    -1.3029    22.2595   187.6234 </r>
       <r>    -1.1651    10.3797   189.0528 </r>
       <r>    -1.0274    14.0504   190.9876 </r>
       <r>    -0.8897    25.1490   194.4508 </r>
       <r>    -0.7520     9.4953   195.7584 </r>
       <r>    -0.6143    11.3608   197.3229 </r>
       <r>    -0.4766    30.7457   201.5568 </r>
       <r>    -0.3389    27.7360   205.3763 </r>
       <r>    -0.2012    39.4808   210.8131 </r>
       <r>    -0.0635    33.2380   215.3902 </r>
       <r>     0.0742    32.8498   219.9139 </r>
       <r>     0.2119    32.5197   224.3921 </r>
       <r>     0.3496    35.2573   229.2473 </r>
       <r>     0.4873    35.8039   234.1777 </r>
       <r>     0.6251    41.6653   239.9154 </r>
       <r>     0.7628    46.9163   246.3761 </r>
       <r>     0.9005    30.9541   250.6387 </r>
       <r>     1.0382    35.1726   255.4822 </r>
       <r>     1.1759    27.3728   259.2517 </r>
       <r>     1.3136    25.5600   262.7715 </r>
       <r>     1.4513    19.4940   265.4560 </r>
       <r>     1.5890    27.7610   269.2789 </r>
       <r>     1.7267    40.3584   274.8365 </r>
       <r>     1.8644    38.7980   280.1793 </r>
       <r>     2.0021    35.1493   285.0196 </r>
       <r>     2.1398    30.4738   289.2161 </r>
       <r>     2.2775    26.1742   292.8205 </r>
       <r>     2.4152    20.8646   295.6937 </r>
       <r>     2.5530    16.1924   297.9235 </r>
       <r>     2.6907    12.8984   299.6997 </r>
       <r>     2.8284    21.9648   302.7244 </r>
       <r>     2.9661    24.2147   306.0590 </r>
       <r>     3.1038    13.1202   307.8657 </r>
       <r>     3.2415    27.0962   311.5971 </r>
       <r>     3.3792    32.1735   316.0276 </r>
       <r>     3.5169    27.6350   319.8331 </r>
       <r>     3.6546    15.8317   322.0133 </r>
       <r>     3.7923     8.6500   323.2045 </r>
       <r>     3.9300     2.7260   323.5798 </r>
       <r>     4.0677     3.1898   324.0191 </r>
       <r>     4.2054    -0.1329   324.0008 </r>
       <r>     4.3432    -0.0058   324.0000 </r>
       <r>     4.4809    -0.0000   324.0000 </r>
       <r>     4.6186    -0.0000   324.0000 </r>
       <r>     4.7563     0.0000   324.0000 </r>
       <r>     4.8940     0.0000   324.0000 </r>
       <r>     5.0317     0.0000   324.0000 </r>
       <r>     5.1694     0.0000   324.0000 </r>
       <r>     5.3071     0.0000   324.0000 </r>
       <r>     5.4448     0.0000   324.0000 </r>
       <r>     5.5825     0.0000   324.0000 </r>
       <r>     5.7202     0.0000   324.0000 </r>
       <r>     5.8579     0.0000   324.0000 </r>
      </set>
     </set>
    </array>
   </total>
  </dos>
 </calculation>
 <structure name="finalpos" >
  <crystal>
   <varray name="basis" >
    <v>       6.44325836      -0.00000000       0.00000000 </v>
    <v>      -0.01522462       6.66380179      -0.00000000 </v>
    <v>      -0.82682135      -0.15610911      18.98730721 </v>
   </varray>
   <i name="volume">    815.25035033 </i>
   <varray name="rec_basis" >
    <v>       0.15520098       0.00035458       0.00676130 </v>
    <v>       0.00000000       0.15006449       0.00123379 </v>
    <v>      -0.00000000       0.00000000       0.05266676 </v>
   </varray>
  </crystal>
  <varray name="positions" >
   <v>       0.00242125       0.00496420       0.63651148 </v>
   <v>       0.00644025       0.49673570       0.63528359 </v>
   <v>       0.49841136       0.99814908       0.63641444 </v>
   <v>       0.49622450       0.49650143       0.63707826 </v>
   <v>       0.99635238       0.99959795       0.27533825 </v>
   <v>       0.00179031       0.50235501       0.27323901 </v>
   <v>       0.50091303       0.99977142       0.27378213 </v>
   <v>       0.50404812       0.49699467       0.27142783 </v>
   <v>       0.00245092       0.00437185       0.45283270 </v>
   <v>       0.99989216       0.49894817       0.45426472 </v>
   <v>       0.50074976       0.00002126       0.45261650 </v>
   <v>       0.50250415       0.49931652       0.45364687 </v>
   <v>       0.25012492       0.24692381       0.72492556 </v>
   <v>       0.24780726       0.74835869       0.72752964 </v>
   <v>       0.74748728       0.24913095       0.72761953 </v>
   <v>       0.74604293       0.74854397       0.72816823 </v>
   <v>       0.24500287       0.24772240       0.36541338 </v>
   <v>       0.25184251       0.74998860       0.36257082 </v>
   <v>       0.74459692       0.25283124       0.36495333 </v>
   <v>       0.74616943       0.74741945       0.36374267 </v>
   <v>       0.25369041       0.25171326       0.54683444 </v>
   <v>       0.25543625       0.74625180       0.54479809 </v>
   <v>       0.74986859       0.25365189       0.54596389 </v>
   <v>       0.74676136       0.74620690       0.54385720 </v>
  </varray>
 </structure>
</modeling>
