unknown system                          
           1
     6.443258   -0.000000    0.000000
    -0.015225    6.663802   -0.000000
    -0.826821   -0.156109   18.987307
   Ta
    24
Direct configuration=     1
   0.00242125  0.00496420  0.63651148
   0.00644025  0.49673570  0.63528359
   0.49841136  0.99814908  0.63641444
   0.49622450  0.49650143  0.63707826
   0.99635238  0.99959795  0.27533825
   0.00179031  0.50235501  0.27323901
   0.50091303  0.99977142  0.27378213
   0.50404812  0.49699467  0.27142783
   0.00245092  0.00437185  0.45283270
   0.99989216  0.49894817  0.45426472
   0.50074976  0.00002126  0.45261650
   0.50250415  0.49931652  0.45364687
   0.25012492  0.24692381  0.72492556
   0.24780726  0.74835869  0.72752964
   0.74748728  0.24913095  0.72761953
   0.74604293  0.74854397  0.72816823
   0.24500287  0.24772240  0.36541338
   0.25184251  0.74998860  0.36257082
   0.74459692  0.25283124  0.36495333
   0.74616943  0.74741945  0.36374267
   0.25369041  0.25171326  0.54683444
   0.25543625  0.74625180  0.54479809
   0.74986859  0.25365189  0.54596389
   0.74676136  0.74620690  0.54385720
