  86  86   0   0
  0.2613387E+02  0.9974555E-09  0.1028926E-08  0.2190171E-08  0.5000000E-15
  1.000000000000000E-004
  CAR 
 unknown system                          
      7.74119462    -31.44745560  301      5.50153436      1.00000000
    -31.447  0.0000E+00  0.0000E+00
    -31.317  0.0000E+00  0.0000E+00
    -31.186  0.0000E+00  0.0000E+00
    -31.056  0.0000E+00  0.0000E+00
    -30.925  0.0000E+00  0.0000E+00
    -30.794  0.0000E+00  0.0000E+00
    -30.664  0.0000E+00  0.0000E+00
    -30.533 -0.8085E-31 -0.1056E-31
    -30.402 -0.8629E-22 -0.1127E-22
    -30.272 -0.2939E-14 -0.3839E-15
    -30.141 -0.3009E-08 -0.3931E-09
    -30.011 -0.9425E-04 -0.1231E-04
    -29.880 -0.7543E-01 -0.9866E-02
    -29.749  0.8695E-01  0.1492E-02
    -29.619  0.1181E+02  0.1544E+01
    -29.488  0.1619E+02  0.3660E+01
    -29.357  0.6365E+02  0.1197E+02
    -29.227  0.9646E+02  0.2457E+02
    -29.096  0.1858E+03  0.4884E+02
    -28.966  0.3285E+03  0.9175E+02
    -28.835  0.3207E+03  0.1336E+03
    -28.704  0.3101E+03  0.1741E+03
    -28.574  0.3281E+03  0.2170E+03
    -28.443  0.2950E+03  0.2555E+03
    -28.312  0.2849E+03  0.2928E+03
    -28.182  0.2762E+03  0.3288E+03
    -28.051  0.2352E+03  0.3596E+03
    -27.920  0.1319E+03  0.3768E+03
    -27.790  0.4691E+02  0.3829E+03
    -27.659  0.3116E+02  0.3870E+03
    -27.529  0.8385E+01  0.3881E+03
    -27.398 -0.6641E+00  0.3880E+03
    -27.267 -0.1138E-01  0.3880E+03
    -27.137 -0.3687E-05  0.3880E+03
    -27.006 -0.3368E-10  0.3880E+03
    -26.875  0.0000E+00  0.3880E+03
    -26.745  0.0000E+00  0.3880E+03
    -26.614  0.0000E+00  0.3880E+03
    -26.484  0.0000E+00  0.3880E+03
    -26.353  0.0000E+00  0.3880E+03
    -26.222  0.0000E+00  0.3880E+03
    -26.092  0.0000E+00  0.3880E+03
    -25.961  0.0000E+00  0.3880E+03
    -25.830  0.0000E+00  0.3880E+03
    -25.700  0.0000E+00  0.3880E+03
    -25.569  0.0000E+00  0.3880E+03
    -25.439  0.0000E+00  0.3880E+03
    -25.308  0.0000E+00  0.3880E+03
    -25.177  0.0000E+00  0.3880E+03
    -25.047  0.0000E+00  0.3880E+03
    -24.916  0.0000E+00  0.3880E+03
    -24.785  0.0000E+00  0.3880E+03
    -24.655  0.0000E+00  0.3880E+03
    -24.524  0.0000E+00  0.3880E+03
    -24.393  0.0000E+00  0.3880E+03
    -24.263  0.0000E+00  0.3880E+03
    -24.132  0.0000E+00  0.3880E+03
    -24.002  0.0000E+00  0.3880E+03
    -23.871  0.0000E+00  0.3880E+03
    -23.740  0.0000E+00  0.3880E+03
    -23.610  0.0000E+00  0.3880E+03
    -23.479  0.0000E+00  0.3880E+03
    -23.348  0.0000E+00  0.3880E+03
    -23.218  0.0000E+00  0.3880E+03
    -23.087  0.0000E+00  0.3880E+03
    -22.957  0.0000E+00  0.3880E+03
    -22.826  0.0000E+00  0.3880E+03
    -22.695  0.0000E+00  0.3880E+03
    -22.565  0.0000E+00  0.3880E+03
    -22.434  0.0000E+00  0.3880E+03
    -22.303  0.0000E+00  0.3880E+03
    -22.173  0.0000E+00  0.3880E+03
    -22.042  0.0000E+00  0.3880E+03
    -21.912  0.0000E+00  0.3880E+03
    -21.781  0.0000E+00  0.3880E+03
    -21.650  0.0000E+00  0.3880E+03
    -21.520  0.0000E+00  0.3880E+03
    -21.389  0.0000E+00  0.3880E+03
    -21.258  0.0000E+00  0.3880E+03
    -21.128  0.0000E+00  0.3880E+03
    -20.997  0.0000E+00  0.3880E+03
    -20.867  0.0000E+00  0.3880E+03
    -20.736  0.0000E+00  0.3880E+03
    -20.605  0.0000E+00  0.3880E+03
    -20.475  0.0000E+00  0.3880E+03
    -20.344  0.0000E+00  0.3880E+03
    -20.213  0.0000E+00  0.3880E+03
    -20.083  0.0000E+00  0.3880E+03
    -19.952  0.0000E+00  0.3880E+03
    -19.821  0.0000E+00  0.3880E+03
    -19.691  0.0000E+00  0.3880E+03
    -19.560  0.0000E+00  0.3880E+03
    -19.430  0.0000E+00  0.3880E+03
    -19.299  0.0000E+00  0.3880E+03
    -19.168  0.0000E+00  0.3880E+03
    -19.038  0.0000E+00  0.3880E+03
    -18.907  0.0000E+00  0.3880E+03
    -18.776  0.0000E+00  0.3880E+03
    -18.646  0.0000E+00  0.3880E+03
    -18.515  0.0000E+00  0.3880E+03
    -18.385  0.0000E+00  0.3880E+03
    -18.254  0.0000E+00  0.3880E+03
    -18.123  0.0000E+00  0.3880E+03
    -17.993  0.0000E+00  0.3880E+03
    -17.862  0.0000E+00  0.3880E+03
    -17.731  0.0000E+00  0.3880E+03
    -17.601  0.0000E+00  0.3880E+03
    -17.470  0.0000E+00  0.3880E+03
    -17.340  0.0000E+00  0.3880E+03
    -17.209  0.0000E+00  0.3880E+03
    -17.078  0.0000E+00  0.3880E+03
    -16.948  0.0000E+00  0.3880E+03
    -16.817  0.0000E+00  0.3880E+03
    -16.686  0.0000E+00  0.3880E+03
    -16.556  0.0000E+00  0.3880E+03
    -16.425  0.0000E+00  0.3880E+03
    -16.295  0.0000E+00  0.3880E+03
    -16.164  0.0000E+00  0.3880E+03
    -16.033  0.0000E+00  0.3880E+03
    -15.903  0.0000E+00  0.3880E+03
    -15.772  0.0000E+00  0.3880E+03
    -15.641  0.0000E+00  0.3880E+03
    -15.511  0.0000E+00  0.3880E+03
    -15.380  0.0000E+00  0.3880E+03
    -15.249  0.0000E+00  0.3880E+03
    -15.119  0.0000E+00  0.3880E+03
    -14.988 -0.5697E-32  0.3880E+03
    -14.858 -0.9086E-23  0.3880E+03
    -14.727 -0.4631E-15  0.3880E+03
    -14.596 -0.7131E-09  0.3880E+03
    -14.466 -0.3381E-04  0.3880E+03
    -14.335 -0.4232E-01  0.3880E+03
    -14.204 -0.3222E+00  0.3880E+03
    -14.074  0.1181E+02  0.3895E+03
    -13.943  0.4755E+01  0.3901E+03
    -13.813  0.1303E+02  0.3918E+03
    -13.682  0.1338E+02  0.3936E+03
    -13.551  0.1524E+02  0.3956E+03
    -13.421  0.1957E+02  0.3981E+03
    -13.290  0.2326E+02  0.4012E+03
    -13.159  0.2302E+02  0.4042E+03
    -13.029  0.1324E+02  0.4059E+03
    -12.898  0.2297E+02  0.4089E+03
    -12.768  0.5804E+02  0.4165E+03
    -12.637  0.5939E+02  0.4242E+03
    -12.506  0.4827E+02  0.4305E+03
    -12.376  0.4721E+02  0.4367E+03
    -12.245  0.6892E+02  0.4457E+03
    -12.114  0.7712E+02  0.4558E+03
    -11.984  0.7843E+02  0.4660E+03
    -11.853  0.9125E+02  0.4779E+03
    -11.723  0.1196E+03  0.4936E+03
    -11.592  0.1025E+03  0.5070E+03
    -11.461  0.8492E+02  0.5180E+03
    -11.331  0.6296E+02  0.5263E+03
    -11.200  0.5449E+02  0.5334E+03
    -11.069  0.7322E+02  0.5430E+03
    -10.939  0.6915E+02  0.5520E+03
    -10.808  0.4945E+02  0.5584E+03
    -10.677  0.1804E+02  0.5608E+03
    -10.547  0.3250E+02  0.5650E+03
    -10.416  0.9491E+01  0.5663E+03
    -10.286  0.3153E+02  0.5704E+03
    -10.155  0.1300E+02  0.5721E+03
    -10.024 -0.1145E+01  0.5720E+03
     -9.894  0.5181E+01  0.5726E+03
     -9.763  0.1045E+02  0.5740E+03
     -9.632  0.7282E+01  0.5749E+03
     -9.502  0.1391E+02  0.5768E+03
     -9.371  0.9948E+01  0.5781E+03
     -9.241 -0.6835E+00  0.5780E+03
     -9.110  0.1243E+02  0.5796E+03
     -8.979  0.3389E+01  0.5800E+03
     -8.849 -0.2912E+00  0.5800E+03
     -8.718 -0.1485E-02  0.5800E+03
     -8.587 -0.1651E-06  0.5800E+03
     -8.457 -0.5303E-12  0.5800E+03
     -8.326  0.0000E+00  0.5800E+03
     -8.196  0.0000E+00  0.5800E+03
     -8.065  0.0000E+00  0.5800E+03
     -7.934  0.0000E+00  0.5800E+03
     -7.804  0.0000E+00  0.5800E+03
     -7.673  0.0000E+00  0.5800E+03
     -7.542  0.0000E+00  0.5800E+03
     -7.412  0.0000E+00  0.5800E+03
     -7.281  0.0000E+00  0.5800E+03
     -7.150  0.0000E+00  0.5800E+03
     -7.020  0.0000E+00  0.5800E+03
     -6.889  0.0000E+00  0.5800E+03
     -6.759  0.0000E+00  0.5800E+03
     -6.628  0.0000E+00  0.5800E+03
     -6.497  0.0000E+00  0.5800E+03
     -6.367  0.0000E+00  0.5800E+03
     -6.236  0.0000E+00  0.5800E+03
     -6.105  0.0000E+00  0.5800E+03
     -5.975  0.0000E+00  0.5800E+03
     -5.844  0.0000E+00  0.5800E+03
     -5.714  0.0000E+00  0.5800E+03
     -5.583  0.0000E+00  0.5800E+03
     -5.452  0.0000E+00  0.5800E+03
     -5.322  0.0000E+00  0.5800E+03
     -5.191  0.0000E+00  0.5800E+03
     -5.060  0.0000E+00  0.5800E+03
     -4.930  0.0000E+00  0.5800E+03
     -4.799  0.0000E+00  0.5800E+03
     -4.669  0.0000E+00  0.5800E+03
     -4.538  0.0000E+00  0.5800E+03
     -4.407  0.0000E+00  0.5800E+03
     -4.277  0.0000E+00  0.5800E+03
     -4.146  0.0000E+00  0.5800E+03
     -4.015  0.0000E+00  0.5800E+03
     -3.885  0.0000E+00  0.5800E+03
     -3.754  0.0000E+00  0.5800E+03
     -3.624  0.0000E+00  0.5800E+03
     -3.493  0.0000E+00  0.5800E+03
     -3.362  0.0000E+00  0.5800E+03
     -3.232  0.0000E+00  0.5800E+03
     -3.101  0.0000E+00  0.5800E+03
     -2.970  0.0000E+00  0.5800E+03
     -2.840  0.0000E+00  0.5800E+03
     -2.709 -0.1125E-34  0.5800E+03
     -2.578 -0.2996E-25  0.5800E+03
     -2.448 -0.2554E-17  0.5800E+03
     -2.317 -0.6615E-11  0.5800E+03
     -2.187 -0.5316E-06  0.5800E+03
     -2.056 -0.1166E-02  0.5800E+03
     -1.925 -0.3656E-01  0.5800E+03
     -1.795  0.4775E+00  0.5801E+03
     -1.664  0.2613E+01  0.5804E+03
     -1.533  0.4005E+01  0.5809E+03
     -1.403  0.1629E+01  0.5811E+03
     -1.272  0.2059E+01  0.5814E+03
     -1.142  0.6435E+01  0.5822E+03
     -1.011  0.3053E+01  0.5826E+03
     -0.880  0.2858E+00  0.5827E+03
     -0.750  0.3979E+01  0.5832E+03
     -0.619  0.9593E+01  0.5845E+03
     -0.488  0.6011E+01  0.5852E+03
     -0.358  0.5873E+01  0.5860E+03
     -0.227  0.8875E+01  0.5872E+03
     -0.097  0.6745E+01  0.5880E+03
      0.034  0.3639E+01  0.5885E+03
      0.165  0.1106E+02  0.5900E+03
      0.295  0.1226E+02  0.5916E+03
      0.426  0.8118E+01  0.5926E+03
      0.557  0.9277E+01  0.5938E+03
      0.687  0.9936E+01  0.5951E+03
      0.818  0.1056E+02  0.5965E+03
      0.948  0.1596E+02  0.5986E+03
      1.079  0.1887E+02  0.6011E+03
      1.210  0.2082E+02  0.6038E+03
      1.340  0.2104E+02  0.6065E+03
      1.471  0.2755E+02  0.6101E+03
      1.602  0.2947E+02  0.6140E+03
      1.732  0.3332E+02  0.6183E+03
      1.863  0.3639E+02  0.6231E+03
      1.994  0.5021E+02  0.6296E+03
      2.124  0.4133E+02  0.6350E+03
      2.255  0.4411E+02  0.6408E+03
      2.385  0.4939E+02  0.6473E+03
      2.516  0.5145E+02  0.6540E+03
      2.647  0.6083E+02  0.6619E+03
      2.777  0.6473E+02  0.6704E+03
      2.908  0.5797E+02  0.6780E+03
      3.039  0.5818E+02  0.6856E+03
      3.169  0.5360E+02  0.6926E+03
      3.300  0.5540E+02  0.6998E+03
      3.430  0.6631E+02  0.7085E+03
      3.561  0.8291E+02  0.7193E+03
      3.692  0.9680E+02  0.7319E+03
      3.822  0.1082E+03  0.7461E+03
      3.953  0.1082E+03  0.7602E+03
      4.084  0.1187E+03  0.7757E+03
      4.214  0.1225E+03  0.7917E+03
      4.345  0.1251E+03  0.8080E+03
      4.475  0.1320E+03  0.8253E+03
      4.606  0.1329E+03  0.8426E+03
      4.737  0.1308E+03  0.8597E+03
      4.867  0.1372E+03  0.8777E+03
      4.998  0.1343E+03  0.8952E+03
      5.129  0.1378E+03  0.9132E+03
      5.259  0.1539E+03  0.9333E+03
      5.390  0.1681E+03  0.9553E+03
      5.521  0.2098E+03  0.9827E+03
      5.651  0.3301E+03  0.1026E+04
      5.782  0.4915E+03  0.1090E+04
      5.912  0.5168E+03  0.1157E+04
      6.043  0.1523E+03  0.1177E+04
      6.174 -0.1026E+02  0.1176E+04
      6.304 -0.2944E+00  0.1176E+04
      6.435 -0.1792E-03  0.1176E+04
      6.566 -0.3471E-08  0.1176E+04
      6.696 -0.3187E-15  0.1176E+04
      6.827  0.0000E+00  0.1176E+04
      6.957  0.0000E+00  0.1176E+04
      7.088  0.0000E+00  0.1176E+04
      7.219  0.0000E+00  0.1176E+04
      7.349  0.0000E+00  0.1176E+04
      7.480  0.0000E+00  0.1176E+04
      7.611  0.0000E+00  0.1176E+04
      7.741  0.0000E+00  0.1176E+04
