   86   86    1    1
  0.2613387E+02  0.9974555E-09  0.1028926E-08  0.2190171E-08  0.5000000E-15
  1.000000000000000E-004
  CAR 
 unknown system                          
    978     20    588
 
  0.0000000E+00  0.0000000E+00  0.0000000E+00  0.3125000E-01
      1        -29.666142   1.000000
      2        -29.487740   1.000000
      3        -29.458650   1.000000
      4        -29.445679   1.000000
      5        -29.403671   1.000000
      6        -29.378673   1.000000
      7        -29.352941   1.000000
      8        -29.307643   1.000000
      9        -29.293243   1.000000
     10        -29.271779   1.000000
     11        -29.238745   1.000000
     12        -29.234600   1.000000
     13        -29.225004   1.000000
     14        -29.214993   1.000000
     15        -29.203110   1.000000
     16        -29.191445   1.000000
     17        -29.158198   1.000000
     18        -29.147987   1.000000
     19        -29.135503   1.000000
     20        -29.131439   1.000000
     21        -29.126731   1.000000
     22        -29.116613   1.000000
     23        -29.111122   1.000000
     24        -29.100279   1.000000
     25        -29.092261   1.000000
     26        -29.087940   1.000000
     27        -29.080502   1.000000
     28        -29.071170   1.000000
     29        -29.067177   1.000000
     30        -29.053500   1.000000
     31        -29.052573   1.000000
     32        -29.046995   1.000000
     33        -29.038086   1.000000
     34        -29.035350   1.000000
     35        -29.033543   1.000000
     36        -29.024066   1.000000
     37        -29.023052   1.000000
     38        -29.013446   1.000000
     39        -29.009979   1.000000
     40        -29.003225   1.000000
     41        -29.000298   1.000000
     42        -28.997453   1.000000
     43        -28.988221   1.000000
     44        -28.982183   1.000000
     45        -28.979053   1.000000
     46        -28.974791   1.000000
     47        -28.964582   1.000000
     48        -28.959482   1.000000
     49        -28.949392   1.000000
     50        -28.947430   1.000000
     51        -28.943580   1.000000
     52        -28.929867   1.000000
     53        -28.923146   1.000000
     54        -28.917240   1.000000
     55        -28.912063   1.000000
     56        -28.910595   1.000000
     57        -28.905473   1.000000
     58        -28.896224   1.000000
     59        -28.888164   1.000000
     60        -28.883516   1.000000
     61        -28.881506   1.000000
     62        -28.870166   1.000000
     63        -28.865589   1.000000
     64        -28.858647   1.000000
     65        -28.853812   1.000000
     66        -28.844813   1.000000
     67        -28.839210   1.000000
     68        -28.831360   1.000000
     69        -28.824281   1.000000
     70        -28.820072   1.000000
     71        -28.814378   1.000000
     72        -28.808262   1.000000
     73        -28.801514   1.000000
     74        -28.792129   1.000000
     75        -28.787150   1.000000
     76        -28.779821   1.000000
     77        -28.778443   1.000000
     78        -28.776348   1.000000
     79        -28.764381   1.000000
     80        -28.755311   1.000000
     81        -28.743553   1.000000
     82        -28.741460   1.000000
     83        -28.731648   1.000000
     84        -28.725448   1.000000
     85        -28.713228   1.000000
     86        -28.710280   1.000000
     87        -28.707560   1.000000
     88        -28.704725   1.000000
     89        -28.694040   1.000000
     90        -28.687791   1.000000
     91        -28.684650   1.000000
     92        -28.674670   1.000000
     93        -28.671923   1.000000
     94        -28.661941   1.000000
     95        -28.657610   1.000000
     96        -28.652376   1.000000
     97        -28.641655   1.000000
     98        -28.636910   1.000000
     99        -28.628585   1.000000
    100        -28.625808   1.000000
    101        -28.622086   1.000000
    102        -28.613387   1.000000
    103        -28.604300   1.000000
    104        -28.603302   1.000000
    105        -28.599757   1.000000
    106        -28.595728   1.000000
    107        -28.585398   1.000000
    108        -28.584277   1.000000
    109        -28.570418   1.000000
    110        -28.564272   1.000000
    111        -28.562555   1.000000
    112        -28.553948   1.000000
    113        -28.545436   1.000000
    114        -28.541044   1.000000
    115        -28.532012   1.000000
    116        -28.525883   1.000000
    117        -28.517897   1.000000
    118        -28.513637   1.000000
    119        -28.511188   1.000000
    120        -28.497304   1.000000
    121        -28.494920   1.000000
    122        -28.491667   1.000000
    123        -28.486929   1.000000
    124        -28.479050   1.000000
    125        -28.474451   1.000000
    126        -28.469810   1.000000
    127        -28.454676   1.000000
    128        -28.445320   1.000000
    129        -28.435315   1.000000
    130        -28.428761   1.000000
    131        -28.415749   1.000000
    132        -28.413610   1.000000
    133        -28.403329   1.000000
    134        -28.397710   1.000000
    135        -28.376391   1.000000
    136        -28.374742   1.000000
    137        -28.371690   1.000000
    138        -28.366546   1.000000
    139        -28.360878   1.000000
    140        -28.354883   1.000000
    141        -28.344273   1.000000
    142        -28.342916   1.000000
    143        -28.337667   1.000000
    144        -28.329048   1.000000
    145        -28.324699   1.000000
    146        -28.316699   1.000000
    147        -28.312080   1.000000
    148        -28.306489   1.000000
    149        -28.301080   1.000000
    150        -28.292675   1.000000
    151        -28.285864   1.000000
    152        -28.279451   1.000000
    153        -28.273210   1.000000
    154        -28.269860   1.000000
    155        -28.265086   1.000000
    156        -28.263125   1.000000
    157        -28.249853   1.000000
    158        -28.240301   1.000000
    159        -28.236067   1.000000
    160        -28.232128   1.000000
    161        -28.220198   1.000000
    162        -28.204060   1.000000
    163        -28.202652   1.000000
    164        -28.187156   1.000000
    165        -28.175111   1.000000
    166        -28.162997   1.000000
    167        -28.157717   1.000000
    168        -28.154037   1.000000
    169        -28.147637   1.000000
    170        -28.144845   1.000000
    171        -28.128359   1.000000
    172        -28.121174   1.000000
    173        -28.110293   1.000000
    174        -28.102170   1.000000
    175        -28.098519   1.000000
    176        -28.092049   1.000000
    177        -28.085224   1.000000
    178        -28.075175   1.000000
    179        -28.067377   1.000000
    180        -28.064349   1.000000
    181        -28.050184   1.000000
    182        -28.032255   1.000000
    183        -28.021837   1.000000
    184        -27.999645   1.000000
    185        -27.993736   1.000000
    186        -27.983265   1.000000
    187        -27.970611   1.000000
    188        -27.952599   1.000000
    189        -27.929576   1.000000
    190        -27.850813   1.000000
    191        -27.833463   1.000000
    192        -27.799901   1.000000
    193        -27.725083   1.000000
    194        -27.658179   1.000000
    195        -14.105281   1.000000
    196        -13.874456   1.000000
    197        -13.716749   1.000000
    198        -13.566296   1.000000
    199        -13.482732   1.000000
    200        -13.369352   1.000000
    201        -13.272981   1.000000
    202        -13.233758   1.000000
    203        -13.113463   1.000000
    204        -12.975618   1.000000
    205        -12.865779   1.000000
    206        -12.844134   1.000000
    207        -12.818489   1.000000
    208        -12.809790   1.000000
    209        -12.778928   1.000000
    210        -12.716463   1.000000
    211        -12.694653   1.000000
    212        -12.646634   1.000000
    213        -12.601789   1.000000
    214        -12.590581   1.000000
    215        -12.571248   1.000000
    216        -12.524164   1.000000
    217        -12.441277   1.000000
    218        -12.395139   1.000000
    219        -12.350349   1.000000
    220        -12.338597   1.000000
    221        -12.293902   1.000000
    222        -12.262763   1.000000
    223        -12.238018   1.000000
    224        -12.220898   1.000000
    225        -12.217198   1.000000
    226        -12.208459   1.000000
    227        -12.159731   1.000000
    228        -12.126864   1.000000
    229        -12.116806   1.000000
    230        -12.086660   1.000000
    231        -12.061539   1.000000
    232        -12.031995   1.000000
    233        -12.006656   1.000000
    234        -11.953870   1.000000
    235        -11.945249   1.000000
    236        -11.939038   1.000000
    237        -11.936544   1.000000
    238        -11.874067   1.000000
    239        -11.860709   1.000000
    240        -11.826580   1.000000
    241        -11.818218   1.000000
    242        -11.801201   1.000000
    243        -11.792175   1.000000
    244        -11.790565   1.000000
    245        -11.760727   1.000000
    246        -11.752548   1.000000
    247        -11.719576   1.000000
    248        -11.708222   1.000000
    249        -11.694473   1.000000
    250        -11.675446   1.000000
    251        -11.659327   1.000000
    252        -11.652375   1.000000
    253        -11.617377   1.000000
    254        -11.574570   1.000000
    255        -11.572526   1.000000
    256        -11.547280   1.000000
    257        -11.520424   1.000000
    258        -11.476545   1.000000
    259        -11.471590   1.000000
    260        -11.452339   1.000000
    261        -11.416318   1.000000
    262        -11.394471   1.000000
    263        -11.384744   1.000000
    264        -11.289811   1.000000
    265        -11.257259   1.000000
    266        -11.237194   1.000000
    267        -11.202218   1.000000
    268        -11.182671   1.000000
    269        -11.155713   1.000000
    270        -11.116121   1.000000
    271        -11.100247   1.000000
    272        -11.082093   1.000000
    273        -11.028143   1.000000
    274        -10.984323   1.000000
    275        -10.970724   1.000000
    276        -10.947154   1.000000
    277        -10.926578   1.000000
    278        -10.898232   1.000000
    279        -10.883331   1.000000
    280        -10.766791   1.000000
    281        -10.655881   1.000000
    282        -10.604835   1.000000
    283        -10.564782   1.000000
    284        -10.350226   1.000000
    285        -10.342771   1.000000
    286        -10.263541   1.000000
    287         -9.870396   1.000000
    288         -9.622993   1.000000
    289         -9.480691   1.000000
    290         -9.146560   1.000000
    291         -1.807233   1.000000
    292         -0.786204   1.000000
    293         -0.036738   1.000000
    294          0.066087   1.000000
    295          0.175077   1.000000
    296          0.196980   1.000000
    297          0.396746   1.000000
    298          0.616111   1.000000
    299          0.748411   1.000000
    300          0.801402   1.000000
    301          0.864796   1.000000
    302          1.171126   1.000000
    303          1.210063   1.000000
    304          1.246337   1.000000
    305          1.267539   1.000000
    306          1.332349   1.000000
    307          1.368922   1.000000
    308          1.408278   1.000000
    309          1.462267   1.000000
    310          1.835208   1.000000
    311          1.843144   1.000000
    312          1.879794   1.000000
    313          1.902441   1.000000
    314          1.994549   1.000000
    315          2.013071   1.000000
    316          2.086826   1.000000
    317          2.158574   1.000000
    318          2.185535   1.000000
    319          2.221255   1.000000
    320          2.250543   1.000000
    321          2.307684   1.000000
    322          2.333586   1.000000
    323          2.365285   1.000000
    324          2.427402   1.000000
    325          2.444965   1.000000
    326          2.459706   1.000000
    327          2.544554   1.000000
    328          2.599311   1.000000
    329          2.645676   1.000000
    330          2.669398   1.000000
    331          2.680495   1.000000
    332          2.727527   1.000000
    333          2.749105   1.000000
    334          2.771508   1.000000
    335          2.810059   1.000000
    336          2.838093   1.000000
    337          2.890141   1.000000
    338          2.908739   1.000000
    339          2.920245   1.000000
    340          2.948462   1.000000
    341          2.958423   1.000000
    342          2.987481   1.000000
    343          3.020511   1.000000
    344          3.056567   1.000000
    345          3.094423   1.000000
    346          3.147765   1.000000
    347          3.155302   1.000000
    348          3.181261   1.000000
    349          3.245276   1.000000
    350          3.293416   1.000000
    351          3.333958   1.000000
    352          3.360324   1.000000
    353          3.387270   1.000000
    354          3.404573   1.000000
    355          3.465155   1.000000
    356          3.469520   1.000000
    357          3.509728   1.000000
    358          3.531583   1.000000
    359          3.559339   1.000000
    360          3.577408   1.000000
    361          3.609361   1.000000
    362          3.621053   1.000000
    363          3.640855   1.000000
    364          3.651597   1.000000
    365          3.694974   1.000000
    366          3.711634   1.000000
    367          3.713298   1.000000
    368          3.738850   1.000000
    369          3.765069   1.000000
    370          3.781378   1.000000
    371          3.797076   1.000000
    372          3.812219   1.000000
    373          3.827258   1.000000
    374          3.839916   1.000000
    375          3.862743   1.000000
    376          3.889427   1.000000
    377          3.889908   1.000000
    378          3.934115   1.000000
    379          3.949789   1.000000
    380          3.955774   1.000000
    381          3.976671   1.000000
    382          3.988384   1.000000
    383          4.001764   1.000000
    384          4.028999   1.000000
    385          4.044648   1.000000
    386          4.058592   1.000000
    387          4.075681   1.000000
    388          4.095931   1.000000
    389          4.117229   1.000000
    390          4.130801   1.000000
    391          4.147086   1.000000
    392          4.158220   1.000000
    393          4.166928   1.000000
    394          4.177158   1.000000
    395          4.194548   1.000000
    396          4.213546   1.000000
    397          4.235989   1.000000
    398          4.259547   1.000000
    399          4.267468   1.000000
    400          4.280182   1.000000
    401          4.300550   1.000000
    402          4.311346   1.000000
    403          4.333683   1.000000
    404          4.359017   1.000000
    405          4.363307   1.000000
    406          4.382574   1.000000
    407          4.395594   1.000000
    408          4.410923   1.000000
    409          4.415699   1.000000
    410          4.420857   1.000000
    411          4.429462   1.000000
    412          4.439719   1.000000
    413          4.457705   1.000000
    414          4.487270   1.000000
    415          4.497181   1.000000
    416          4.505741   1.000000
    417          4.522180   1.000000
    418          4.532619   1.000000
    419          4.549875   1.000000
    420          4.574721   1.000000
    421          4.616862   1.000000
    422          4.624919   1.000000
    423          4.639585   1.000000
    424          4.646996   1.000000
    425          4.658444   1.000000
    426          4.666232   1.000000
    427          4.696750   1.000000
    428          4.713724   1.000000
    429          4.718778   1.000000
    430          4.729031   1.000000
    431          4.750430   1.000000
    432          4.768291   1.000000
    433          4.773100   1.000000
    434          4.782199   1.000000
    435          4.796423   1.000000
    436          4.806725   1.000000
    437          4.821925   1.000000
    438          4.840697   1.000000
    439          4.856504   1.000000
    440          4.877428   1.000000
    441          4.889907   1.000000
    442          4.902533   1.000000
    443          4.910452   1.000000
    444          4.919819   1.000000
    445          4.926018   1.000000
    446          4.942762   1.000000
    447          4.965400   1.000000
    448          4.995420   1.000000
    449          5.005458   1.000000
    450          5.024680   1.000000
    451          5.038106   1.000000
    452          5.051968   1.000000
    453          5.064787   1.000000
    454          5.083557   1.000000
    455          5.101324   1.000000
    456          5.112846   1.000000
    457          5.125159   1.000001
    458          5.143552   1.000003
    459          5.149224   1.000004
    460          5.164829   1.000010
    461          5.175606   1.000020
    462          5.186738   1.000040
    463          5.204413   1.000110
    464          5.214725   1.000192
    465          5.223933   1.000309
    466          5.240436   1.000695
    467          5.259257   1.001624
    468          5.270298   1.002569
    469          5.277436   1.003403
    470          5.292304   1.005866
    471          5.298612   1.007266
    472          5.312897   1.011339
    473          5.322290   1.014724
    474          5.328203   1.017120
    475          5.346041   1.025151
    476          5.356893   1.029960
    477          5.381845   1.035334
    478          5.385035   1.034862
    479          5.398735   1.027794
    480          5.407884   1.017221
    481          5.413299   1.008221
    482          5.428934   0.968624
    483          5.447038   0.893785
    484          5.452095   0.867003
    485          5.454778   0.851767
    486          5.467234   0.772211
    487          5.474159   0.722328
    488          5.486848   0.622812
    489          5.489074   0.604543
    490          5.507458   0.449968
    491          5.518948   0.355080
    492          5.521933   0.331288
    493          5.526283   0.297500
    494          5.540804   0.194380
    495          5.544752   0.169395
    496          5.555322   0.109814
    497          5.565809   0.061726
    498          5.567419   0.055325
    499          5.573386   0.033828
    500          5.574936   0.028810
    501          5.587033  -0.002809
    502          5.593837  -0.015185
    503          5.595847  -0.018174
    504          5.600391  -0.023900
    505          5.611081  -0.032408
    506          5.613021  -0.033308
    507          5.621591  -0.035365
    508          5.625504  -0.035424
    509          5.631608  -0.034657
    510          5.633639  -0.034208
    511          5.640411  -0.032175
    512          5.644644  -0.030582
    513          5.649963  -0.028346
    514          5.653505  -0.026765
    515          5.658310  -0.024558
    516          5.664246  -0.021817
    517          5.666209  -0.020921
    518          5.671240  -0.018676
    519          5.677143  -0.016175
    520          5.682887  -0.013917
    521          5.685542  -0.012939
    522          5.689088  -0.011701
    523          5.693096  -0.010400
    524          5.693646  -0.010229
    525          5.699273  -0.008595
    526          5.701907  -0.007899
    527          5.708249  -0.006397
    528          5.712552  -0.005511
    529          5.715496  -0.004963
    530          5.722668  -0.003810
    531          5.725432  -0.003429
    532          5.726847  -0.003247
    533          5.736036  -0.002250
    534          5.737844  -0.002088
    535          5.743686  -0.001633
    536          5.745196  -0.001530
    537          5.749656  -0.001259
    538          5.754011  -0.001036
    539          5.760050  -0.000785
    540          5.760778  -0.000759
    541          5.764754  -0.000629
    542          5.770806  -0.000469
    543          5.772770  -0.000426
    544          5.774470  -0.000391
    545          5.781747  -0.000270
    546          5.782743  -0.000257
    547          5.789292  -0.000182
    548          5.793178  -0.000148
    549          5.795348  -0.000131
    550          5.801891  -0.000092
    551          5.805370  -0.000075
    552          5.810371  -0.000056
    553          5.811616  -0.000053
    554          5.814468  -0.000044
    555          5.818473  -0.000035
    556          5.823061  -0.000027
    557          5.825108  -0.000024
    558          5.828371  -0.000019
    559          5.832469  -0.000015
    560          5.836854  -0.000011
    561          5.840022  -0.000009
    562          5.846389  -0.000006
    563          5.851637  -0.000004
    564          5.854129  -0.000004
    565          5.857099  -0.000003
    566          5.859423  -0.000003
    567          5.862256  -0.000002
    568          5.865089  -0.000002
    569          5.872613  -0.000001
    570          5.876773  -0.000001
    571          5.877441  -0.000001
    572          5.879736  -0.000001
    573          5.885444  -0.000000
    574          5.889746  -0.000000
    575          5.894163  -0.000000
    576          5.898195  -0.000000
    577          5.902864  -0.000000
    578          5.904168  -0.000000
    579          5.905165  -0.000000
    580          5.909675  -0.000000
    581          5.911859  -0.000000
    582          5.914699  -0.000000
    583          5.925351  -0.000000
    584          5.926455  -0.000000
    585          5.930824  -0.000000
    586          5.935199  -0.000000
    587          5.945929  -0.000000
    588          5.952548  -0.000000
 
  0.2500000E+00  0.6351483E-20  0.6795140E-14  0.6250000E-01
      1        -29.665847   1.000000
      2        -29.484193   1.000000
      3        -29.457041   1.000000
      4        -29.448455   1.000000
      5        -29.407399   1.000000
      6        -29.378812   1.000000
      7        -29.342147   1.000000
      8        -29.306698   1.000000
      9        -29.293098   1.000000
     10        -29.271967   1.000000
     11        -29.252729   1.000000
     12        -29.244226   1.000000
     13        -29.221307   1.000000
     14        -29.214943   1.000000
     15        -29.203633   1.000000
     16        -29.192068   1.000000
     17        -29.161080   1.000000
     18        -29.157121   1.000000
     19        -29.140535   1.000000
     20        -29.130161   1.000000
     21        -29.122231   1.000000
     22        -29.119024   1.000000
     23        -29.109470   1.000000
     24        -29.104238   1.000000
     25        -29.092302   1.000000
     26        -29.087507   1.000000
     27        -29.079009   1.000000
     28        -29.070354   1.000000
     29        -29.062675   1.000000
     30        -29.053647   1.000000
     31        -29.049553   1.000000
     32        -29.044916   1.000000
     33        -29.038067   1.000000
     34        -29.034310   1.000000
     35        -29.030971   1.000000
     36        -29.024684   1.000000
     37        -29.018572   1.000000
     38        -29.012222   1.000000
     39        -29.008505   1.000000
     40        -29.004892   1.000000
     41        -29.002352   1.000000
     42        -28.997599   1.000000
     43        -28.992575   1.000000
     44        -28.986870   1.000000
     45        -28.979146   1.000000
     46        -28.970680   1.000000
     47        -28.966862   1.000000
     48        -28.958867   1.000000
     49        -28.956257   1.000000
     50        -28.953273   1.000000
     51        -28.941128   1.000000
     52        -28.930719   1.000000
     53        -28.924613   1.000000
     54        -28.914451   1.000000
     55        -28.911915   1.000000
     56        -28.905476   1.000000
     57        -28.902830   1.000000
     58        -28.894415   1.000000
     59        -28.887326   1.000000
     60        -28.881028   1.000000
     61        -28.875128   1.000000
     62        -28.869247   1.000000
     63        -28.863873   1.000000
     64        -28.856661   1.000000
     65        -28.848102   1.000000
     66        -28.846041   1.000000
     67        -28.839502   1.000000
     68        -28.830446   1.000000
     69        -28.819893   1.000000
     70        -28.815527   1.000000
     71        -28.809459   1.000000
     72        -28.803769   1.000000
     73        -28.799373   1.000000
     74        -28.795753   1.000000
     75        -28.785848   1.000000
     76        -28.781131   1.000000
     77        -28.776839   1.000000
     78        -28.772284   1.000000
     79        -28.765874   1.000000
     80        -28.750381   1.000000
     81        -28.743625   1.000000
     82        -28.737369   1.000000
     83        -28.729346   1.000000
     84        -28.722851   1.000000
     85        -28.718185   1.000000
     86        -28.715606   1.000000
     87        -28.708591   1.000000
     88        -28.704954   1.000000
     89        -28.699600   1.000000
     90        -28.687223   1.000000
     91        -28.680193   1.000000
     92        -28.674578   1.000000
     93        -28.669331   1.000000
     94        -28.660641   1.000000
     95        -28.656784   1.000000
     96        -28.651220   1.000000
     97        -28.642260   1.000000
     98        -28.637307   1.000000
     99        -28.635440   1.000000
    100        -28.625255   1.000000
    101        -28.619881   1.000000
    102        -28.615125   1.000000
    103        -28.609910   1.000000
    104        -28.605934   1.000000
    105        -28.600890   1.000000
    106        -28.593664   1.000000
    107        -28.590011   1.000000
    108        -28.578555   1.000000
    109        -28.571778   1.000000
    110        -28.565871   1.000000
    111        -28.559841   1.000000
    112        -28.553674   1.000000
    113        -28.548853   1.000000
    114        -28.540942   1.000000
    115        -28.537024   1.000000
    116        -28.529441   1.000000
    117        -28.522749   1.000000
    118        -28.517766   1.000000
    119        -28.509014   1.000000
    120        -28.502113   1.000000
    121        -28.495884   1.000000
    122        -28.489873   1.000000
    123        -28.487687   1.000000
    124        -28.482835   1.000000
    125        -28.477177   1.000000
    126        -28.465188   1.000000
    127        -28.460902   1.000000
    128        -28.445963   1.000000
    129        -28.437939   1.000000
    130        -28.421661   1.000000
    131        -28.419102   1.000000
    132        -28.412057   1.000000
    133        -28.399277   1.000000
    134        -28.393102   1.000000
    135        -28.383567   1.000000
    136        -28.374835   1.000000
    137        -28.373574   1.000000
    138        -28.367110   1.000000
    139        -28.360688   1.000000
    140        -28.357066   1.000000
    141        -28.347341   1.000000
    142        -28.341842   1.000000
    143        -28.334781   1.000000
    144        -28.330244   1.000000
    145        -28.321955   1.000000
    146        -28.318991   1.000000
    147        -28.314278   1.000000
    148        -28.304621   1.000000
    149        -28.301653   1.000000
    150        -28.291457   1.000000
    151        -28.287035   1.000000
    152        -28.277920   1.000000
    153        -28.272482   1.000000
    154        -28.267849   1.000000
    155        -28.267360   1.000000
    156        -28.259884   1.000000
    157        -28.253502   1.000000
    158        -28.239093   1.000000
    159        -28.236108   1.000000
    160        -28.228382   1.000000
    161        -28.219516   1.000000
    162        -28.204771   1.000000
    163        -28.197261   1.000000
    164        -28.183555   1.000000
    165        -28.175773   1.000000
    166        -28.170831   1.000000
    167        -28.156974   1.000000
    168        -28.150063   1.000000
    169        -28.146773   1.000000
    170        -28.143642   1.000000
    171        -28.125627   1.000000
    172        -28.120563   1.000000
    173        -28.111430   1.000000
    174        -28.102967   1.000000
    175        -28.097095   1.000000
    176        -28.090988   1.000000
    177        -28.085345   1.000000
    178        -28.074473   1.000000
    179        -28.069210   1.000000
    180        -28.063442   1.000000
    181        -28.050028   1.000000
    182        -28.033372   1.000000
    183        -28.022493   1.000000
    184        -28.000059   1.000000
    185        -27.994552   1.000000
    186        -27.982558   1.000000
    187        -27.972218   1.000000
    188        -27.953045   1.000000
    189        -27.929781   1.000000
    190        -27.850708   1.000000
    191        -27.833372   1.000000
    192        -27.800130   1.000000
    193        -27.725149   1.000000
    194        -27.658199   1.000000
    195        -14.105488   1.000000
    196        -13.873097   1.000000
    197        -13.720511   1.000000
    198        -13.574668   1.000000
    199        -13.483748   1.000000
    200        -13.369221   1.000000
    201        -13.285936   1.000000
    202        -13.236984   1.000000
    203        -13.099664   1.000000
    204        -12.966701   1.000000
    205        -12.866991   1.000000
    206        -12.842848   1.000000
    207        -12.822727   1.000000
    208        -12.805989   1.000000
    209        -12.772041   1.000000
    210        -12.706097   1.000000
    211        -12.694265   1.000000
    212        -12.652287   1.000000
    213        -12.612517   1.000000
    214        -12.586439   1.000000