 vasp.6.3.2 27Jun22 (build Feb 01 2023 14:57:41) complex                        
  
 executed on             LinuxIFC date 2023.12.18  23:54:16
 running on    4 total cores
 distrk:  each k-point on    4 cores,    1 groups
 distr:  one band on NCORE=   1 cores,    4 groups


--------------------------------------------------------------------------------------------------------


 INCAR:
   ALGO = normal
   EDIFF = 1E-5
   KSPACING = 0.20000
   LASPH = .TRUE.
   ENCUT = 520
   ISIF = 2
   ISMEAR = 1
   LREAL = Auto
   LWAVE = False
   LCHARG = .FALSE.
   NELM = 400
   NSW = 0
   PREC = Accurate
   SIGMA = 0.1
   NPAR = 4

 POTCAR:    PAW_PBE Ta_pv 07Sep2000               
 POTCAR:    PAW_PBE Ce 23Dec2003                  
 POTCAR:    PAW_PBE Ta_pv 07Sep2000               
   SHA256 =  00d0a14a36c127416459414afb8617d9754996fffa60a2465888e660b20a452f Ta_pv/POTCAR          
   COPYR  = (c) Copyright 07Sep2000 Georg Kresse                                                    
   COPYR  = This file is part of the software VASP. Any use, copying, and all other rights are regul
   COPYR  = If you do not have a valid VASP license, you may not use, copy or distribute this file. 
   VRHFIN =Ta:  5p6s5d                                                                              
   LEXCH  = PE                                                                                      
   EATOM  =  1047.1984 eV,   76.9669 Ry                                                             
                                                                                                    
   TITEL  = PAW_PBE Ta_pv 07Sep2000                                                                 
   LULTRA =        F    use ultrasoft PP ?                                                          
   IUNSCR =        1    unscreen: 0-lin 1-nonlin 2-no                                               
   RPACOR =    2.330    partial core radius                                                         
   POMASS =  180.948; ZVAL   =   11.000    mass and valenz                                          
   RCORE  =    2.500    outmost cutoff radius                                                       
   RWIGS  =    2.840; RWIGS  =    1.503    wigner-seitz radius (au A)                               
   ENMAX  =  223.667; ENMIN  =  167.750 eV                                                          
   RCLOC  =    2.205    cutoff for local pot                                                        
   LCOR   =        T    correct aug charges                                                         
   LPAW   =        T    paw PP                                                                      
   EAUG   =  377.421                                                                                
   DEXC   =    0.000                                                                                
   RMAX   =    2.551    core radius for proj-oper                                                   
   RAUG   =    1.300    factor for augmentation sphere                                              
   RDEP   =    2.526    radius for radial grids                                                     
   RDEPT  =    2.132    core radius for aug-charge                                                  
                                                                                                    
   Atomic configuration                                                                             
   15 entries                                                                                       
     n  l   j            E        occ.                                                              
     1  0  0.50    -67341.2801   2.0000                                                             
     2  0  0.50    -11566.9369   2.0000                                                             
     2  1  1.50    -10134.1175   6.0000                                                             
     3  0  0.50     -2648.5614   2.0000                                                             
     3  1  1.50     -2222.6006   6.0000                                                             
     3  2  2.50     -1726.3114  10.0000                                                             
     4  0  0.50      -538.6957   2.0000                                                             
     4  1  1.50      -399.0125   6.0000                                                             
     4  2  2.50      -220.3955  10.0000                                                             
     4  3  3.50       -23.0371  14.0000                                                             
     5  0  0.50       -71.2900   2.0000                                                             
     5  1  1.50       -37.8224   6.0000                                                             
     5  2  2.50        -2.6455   4.0000                                                             
     6  0  0.50        -4.9623   1.0000                                                             
     5  3  2.50        -1.3606   0.0000                                                             
   Description                                                                                      
     l       E           TYP  RCUT    TYP  RCUT                                                     
     1    -37.8224449     23  2.500                                                                 
     1      1.3605826     23  2.500                                                                 
     2     -2.6454718     23  2.500                                                                 
     2     -0.6258570     23  2.500                                                                 
     0     -4.9622674     23  2.500                                                                 
     0      4.7531427     23  2.500                                                                 
  local pseudopotential read in
  partial core-charges read in
  partial kinetic energy density read in
  atomic valenz-charges read in
  non local Contribution for L=           1  read in
    real space projection operators read in
  non local Contribution for L=           1  read in
    real space projection operators read in
  non local Contribution for L=           2  read in
    real space projection operators read in
  non local Contribution for L=           2  read in
    real space projection operators read in
  non local Contribution for L=           0  read in
    real space projection operators read in
  non local Contribution for L=           0  read in
    real space projection operators read in
    PAW grid and wavefunctions read in
 
   number of l-projection  operators is LMAX  =           6
   number of lm-projection operators is LMMAX =          18
 
 POTCAR:    PAW_PBE Ce 23Dec2003                  
   SHA256 =  00bd3101dba980d69718c826e9aff48526de61f93249f80fb0d1cde9afca69b7 Ce/POTCAR             
   COPYR  = (c) Copyright 23Dec2003 Georg Kresse                                                    
   COPYR  = This file is part of the software VASP. Any use, copying, and all other rights are regul
   COPYR  = If you do not have a valid VASP license, you may not use, copy or distribute this file. 
   VRHFIN =Ce : [core= Kr 4d10]                                                                     
   LEXCH  = PE                                                                                      
   EATOM  =  1063.0861 eV,   78.1346 Ry                                                             
                                                                                                    
   TITEL  = PAW_PBE Ce 23Dec2003                                                                    
   LULTRA =        F    use ultrasoft PP ?                                                          
   IUNSCR =        1    unscreen: 0-lin 1-nonlin 2-no                                               
   RPACOR =    1.800    partial core radius                                                         
   POMASS =  140.115; ZVAL   =   12.000    mass and valenz                                          
   RCORE  =    2.700    outmost cutoff radius                                                       
   RWIGS  =    2.500; RWIGS  =    1.323    wigner-seitz radius (au A)                               
   ENMAX  =  273.042; ENMIN  =  204.781 eV                                                          
   RCLOC  =    1.810    cutoff for local pot                                                        
   LCOR   =        T    correct aug charges                                                         
   LPAW   =        T    paw PP                                                                      
   EAUG   =  580.196                                                                                
   DEXC   =    0.000                                                                                
   RMAX   =    2.749    core radius for proj-oper                                                   
   RAUG   =    1.300    factor for augmentation sphere                                              
   RDEP   =    2.810    radius for radial grids                                                     
   RDEPT  =    2.162    core radius for aug-charge                                                  
                                                                                                    
   Atomic configuration                                                                             
   14 entries                                                                                       
     n  l   j            E        occ.                                                              
     1  0  0.50    -40258.9816   2.0000                                                             
     2  0  0.50     -6445.4884   2.0000                                                             
     2  1  1.50     -5771.7470   6.0000                                                             
     3  0  0.50     -1387.9739   2.0000                                                             
     3  1  1.50     -1173.8158   6.0000                                                             
     3  2  2.50      -869.9108  10.0000                                                             
     4  0  0.50      -280.8706   2.0000                                                             
     4  1  1.50      -210.9815   6.0000                                                             
     4  2  2.50      -110.4558  10.0000                                                             
     5  0  0.50       -40.5819   2.0000                                                             
     6  0  0.50        -3.7444   2.0000                                                             
     5  1  1.50       -23.2188   6.0000                                                             
     5  2  2.50        -3.0598   1.0000                                                             
     4  3  2.50        -5.3970   1.0000                                                             
   Description                                                                                      
     l       E           TYP  RCUT    TYP  RCUT                                                     
     0    -40.5819164     23  1.500                                                                 
     0     -3.7443793     23  2.300                                                                 
     1    -23.2188445     23  2.000                                                                 
     1     40.8174780     23  2.300                                                                 
     2     -3.0597556     23  2.500                                                                 
     2     13.6058260     23  2.500                                                                 
     3     -5.3970469     23  2.700                                                                 
     3     -5.8505052     23  2.700                                                                 
  local pseudopotential read in
  partial core-charges read in
  partial kinetic energy density read in
  atomic valenz-charges read in
  non local Contribution for L=           0  read in
    real space projection operators read in
  non local Contribution for L=           0  read in
    real space projection operators read in
  non local Contribution for L=           1  read in
    real space projection operators read in
  non local Contribution for L=           1  read in
    real space projection operators read in
  non local Contribution for L=           2  read in
    real space projection operators read in
  non local Contribution for L=           2  read in
    real space projection operators read in
  non local Contribution for L=           3  read in
    real space projection operators read in
  non local Contribution for L=           3  read in
    real space projection operators read in
    PAW grid and wavefunctions read in
 
   number of l-projection  operators is LMAX  =           8
   number of lm-projection operators is LMMAX =          32
 
 Optimization of the real space projectors (new method)

 maximal supplied QI-value         = 15.12
 optimisation between [QCUT,QGAM] = [ 11.64, 23.28] = [ 37.95,151.78] Ry 
 Optimized for a Real-space Cutoff    1.58 Angstroem

   l    n(q)    QCUT    max X(q) W(low)/X(q) W(high)/X(q)  e(spline) 
   1     11    11.641     4.092    0.14E-04    0.12E-05    0.47E-07
   1     11    11.641     4.834    0.39E-04    0.18E-04    0.22E-06
   2     10    11.641    62.294    0.58E-04    0.39E-03    0.13E-05
   2     10    11.641    50.966    0.58E-04    0.39E-03    0.13E-05
   0     11    11.641   103.792    0.30E-04    0.35E-04    0.21E-06
   0     11    11.641    56.335    0.22E-04    0.32E-04    0.20E-06
 Optimization of the real space projectors (new method)

 maximal supplied QI-value         = 13.98
 optimisation between [QCUT,QGAM] = [ 11.61, 23.35] = [ 37.72,152.72] Ry 
 Optimized for a Real-space Cutoff    1.58 Angstroem

   l    n(q)    QCUT    max X(q) W(low)/X(q) W(high)/X(q)  e(spline) 
   0     11    11.607     8.553    0.18E-04    0.38E-05    0.11E-06
   0     11    11.607     8.106    0.25E-04    0.72E-05    0.23E-06
   1     11    11.607     4.160    0.64E-06    0.35E-05    0.82E-07
   1     11    11.607     3.597    0.15E-04    0.58E-05    0.16E-06
   2     10    11.607     8.183    0.53E-04    0.30E-03    0.10E-05
   2     10    11.607     6.077    0.37E-04    0.21E-03    0.69E-06
   3     10    11.607   116.013    0.17E-03    0.16E-04    0.46E-06
   3     10    11.607   108.937    0.17E-03    0.15E-04    0.47E-06
  PAW_PBE Ta_pv 07Sep2000               :
 energy of atom  1       EATOM=-1047.1984
 kinetic energy error for atom=    0.0016 (will be added to EATOM!!)
  PAW_PBE Ce 23Dec2003                  :
 energy of atom  2       EATOM=-1063.0861
 kinetic energy error for atom=    0.0133 (will be added to EATOM!!)
 
 
 POSCAR: Ta Ce
  positions in cartesian coordinates
  No initial velocities read in
 exchange correlation table for  LEXCH =        8
   RHO(1)=    0.500       N(1)  =     2000
   RHO(2)=  100.500       N(2)  =     4000
 


--------------------------------------------------------------------------------------------------------


 ion  position               nearest neighbor table
   1  0.088  0.032  0.495-   6 2.69  56 2.78  60 3.01  57 3.14  70 3.18  58 3.18  18 3.20  48 3.33
                            10 3.51  54 3.56
   2  0.175  0.156  0.090-  20 2.71  23 2.73   8 2.78   3 2.82  22 2.87  19 2.95  16 2.96   4 3.02
                             7 3.19  46 3.37
   3  0.010  0.001  0.164-  52 2.46  17 2.78   2 2.82  16 2.83   5 2.87  53 2.98   4 2.98  47 3.14
                            30 3.17  46 3.22  12 3.24   8 3.53
   4  0.199  0.178  0.227-   8 2.72   5 2.77  23 2.85  20 2.91   3 2.98   9 3.02   2 3.02  21 3.04
                            24 3.13  31 3.17  13 3.50  47 3.53  17 3.53
   5  0.023  0.031  0.294-  47 2.61  48 2.73   4 2.77  17 2.84   6 2.86   3 2.87  53 3.04   9 3.33
                            14 3.37  54 3.39  21 3.40  32 3.49
   6  0.172  0.145  0.391-   1 2.69  21 2.72  48 2.77   5 2.86  63 2.95   9 2.97  24 3.01  60 3.31
                            18 3.32  33 3.48
   7  0.011  0.366  0.011-  34 2.72  46 2.85  49 2.85  11 2.88  22 3.11  83 3.13   2 3.19   8 3.27

   8  0.042  0.342  0.159-   4 2.72   2 2.78  13 2.90  46 2.95  50 3.01  11 3.08  47 3.13  49 3.14
                            23 3.23   7 3.27   9 3.38   3 3.53  12 3.55
   9  0.044  0.350  0.314-  15 2.90  48 2.92  47 2.93  13 2.94   6 2.97   4 3.02  24 3.11  51 3.13
                            50 3.14   5 3.33   8 3.38
  10  0.024  0.703  0.465-  18 2.76  15 2.83  54 2.87  37 2.94  51 3.05  14 3.09   1 3.51
  11  0.183  0.540  0.077-  26 2.55  22 2.75   7 2.88  25 2.88  12 2.96   8 3.08  38 3.12  85 3.19
                            49 3.23  23 3.25  16 3.38  13 3.42
  12  0.018  0.686  0.166-  52 2.57  17 2.64  49 2.81  13 2.88  53 2.96  11 2.96  50 3.03  16 3.12
                            26 3.23   3 3.24  39 3.44  14 3.49   8 3.55
  13  0.200  0.518  0.233-  26 2.84  27 2.86  12 2.88   8 2.90   9 2.94  24 3.20  17 3.28  23 3.31
                            40 3.32  11 3.42  15 3.45   4 3.50  14 3.51
  14  0.990  0.712  0.325-  54 2.83  53 2.83  41 2.95  15 2.97  51 2.99  17 3.04  10 3.09  18 3.19
                             5 3.37  50 3.41  12 3.49  13 3.51
  15  0.181  0.537  0.390-  10 2.83   9 2.90  27 2.96  14 2.97  24 3.03  18 3.05  63 3.17  42 3.28
                            51 3.34  13 3.45
  16  0.181  0.869  0.081-  19 2.63   3 2.83  26 2.92  25 2.92   2 2.96  52 2.98  20 3.03  12 3.12
                            85 3.29  17 3.33  11 3.38  43 3.49
  17  0.175  0.836  0.232-  12 2.64   3 2.78  27 2.80   5 2.84  26 3.03  14 3.04  44 3.24  13 3.28
                            21 3.29  16 3.33  20 3.46  53 3.49   4 3.53
  18  0.228  0.828  0.404-  10 2.76  27 2.82  21 3.01  15 3.05  14 3.19   1 3.20   6 3.32  45 3.33
                            59 3.34
  19  0.335  0.995  0.005-  16 2.63  81 2.66  43 2.82   2 2.95  25 2.99  29 3.18  20 3.20  22 3.59

  20  0.382  0.035  0.148-  44 2.65  43 2.67   2 2.71  23 2.87   4 2.91  16 3.03  31 3.06  30 3.11
                            19 3.20  29 3.25  17 3.46
  21  0.358  0.021  0.321-   6 2.72  31 2.73  33 2.86  18 3.01   4 3.04  44 3.09  24 3.20  32 3.23
                            45 3.28  17 3.29   5 3.40  27 3.41
  22  0.322  0.343  0.020-  23 2.71  11 2.75  38 2.77   2 2.87  29 3.03   7 3.11  78 3.11  19 3.59

  23  0.362  0.313  0.142-  22 2.71   2 2.73   4 2.85  20 2.87  38 3.02  35 3.09  31 3.14  29 3.21
                             8 3.23  11 3.25  13 3.31  40 3.40
  24  0.354  0.332  0.328-  33 2.54  31 2.74   6 3.01  15 3.03  42 3.05   9 3.11   4 3.13  13 3.20
                            21 3.20  36 3.22  63 3.38  40 3.40
  25  0.347  0.705  0.002-  38 2.76  11 2.88  16 2.92  77 2.94  85 2.95  19 2.99  43 3.06  26 3.15

  26  0.338  0.670  0.145-  11 2.55  38 2.74  13 2.84  16 2.92  44 3.01  17 3.03  40 3.08  25 3.15
                            43 3.22  12 3.23  39 3.36  27 3.55
  27  0.351  0.692  0.307-  17 2.80  18 2.82  13 2.86  42 2.96  15 2.96  44 2.97  40 2.99  21 3.41
                            45 3.43  41 3.50  26 3.55
  28  0.664  0.059  0.477-  33 2.75  69 2.82  45 2.89  54 3.04  58 3.13  48 3.25  56 3.29  32 3.29
                            61 3.33
  29  0.570  0.179  0.049-  46 2.83  34 2.96  22 3.03  35 3.09  19 3.18  30 3.18  23 3.21  43 3.24
                            20 3.25  84 3.31  82 3.33
  30  0.693  0.008  0.157-  43 2.72  53 2.78  52 2.82  44 2.86  46 3.03  20 3.11   3 3.17  47 3.18
                            29 3.18  31 3.29  39 3.33  35 3.56
  31  0.512  0.182  0.253-  21 2.73  24 2.74  32 2.79  36 2.98  33 3.05  20 3.06  23 3.14   4 3.17
                            35 3.20  30 3.29  47 3.36  44 3.41  40 3.55
  32  0.681  0.032  0.328-  33 2.74  54 2.78  31 2.79  48 2.83  45 2.88  47 2.97  53 3.11  21 3.23
                            28 3.29  44 3.48   5 3.49  36 3.54
  33  0.516  0.196  0.392-  24 2.54  32 2.74  28 2.75  21 2.86  36 2.89  31 3.05  63 3.16   6 3.48
                            42 3.53
  34  0.748  0.351  0.979-  83 2.70   7 2.72  78 2.74  46 2.86  29 2.96  55 3.09  49 3.25  84 3.31

  35  0.667  0.353  0.155-  46 2.75  40 2.77  50 2.79  38 3.08  23 3.09  29 3.09  49 3.12  47 3.14
                            31 3.20  39 3.42  30 3.56
  36  0.673  0.376  0.322-  51 2.79  40 2.84  42 2.85  50 2.88  33 2.89  31 2.98  47 3.02  41 3.04
                            24 3.22  48 3.39  32 3.54
  37  0.732  0.669  0.473-  51 2.60  69 2.75  45 2.86  54 2.88  10 2.94  42 3.10  61 3.27
  38  0.495  0.524  0.068-  26 2.74  25 2.76  22 2.77  23 3.02  39 3.05  35 3.08  11 3.12  78 3.24
                            40 3.60
  39  0.674  0.685  0.151-  49 2.76  40 2.82  43 2.87  44 2.92  53 2.92  52 2.96  50 3.03  38 3.05
                            30 3.33  26 3.36  41 3.40  35 3.42  12 3.44
  40  0.533  0.523  0.232-  41 2.77  35 2.77  39 2.82  36 2.84  27 2.99  50 3.03  26 3.08  13 3.32
                            24 3.40  23 3.40  44 3.48  31 3.55  38 3.60
  41  0.701  0.667  0.306-  53 2.66  50 2.76  40 2.77  51 2.94  14 2.95  36 3.04  42 3.07  45 3.19
                            54 3.35  44 3.38  39 3.40  27 3.50
  42  0.510  0.539  0.397-  36 2.85  27 2.96  24 3.05  41 3.07  37 3.10  45 3.21  61 3.24  15 3.28
                            51 3.39  33 3.53
  43  0.531  0.875  0.079-  20 2.67  30 2.72  19 2.82  39 2.87  25 3.06  44 3.11  26 3.22  29 3.24
                            16 3.49  52 3.57
  44  0.497  0.859  0.220-  20 2.65  30 2.86  39 2.92  27 2.97  26 3.01  21 3.09  43 3.11  17 3.24
                            53 3.29  41 3.38  31 3.41  40 3.48  32 3.48
  45  0.560  0.845  0.407-  54 2.84  37 2.86  32 2.88  28 2.89  69 2.91  41 3.19  42 3.21  21 3.28
                            18 3.33  27 3.43
  46  0.841  0.209  0.084-  84 2.49  35 2.75  29 2.83   7 2.85  34 2.86   8 2.95  30 3.03   3 3.22
                             2 3.37  49 3.40  47 3.58
  47  0.848  0.195  0.247-   5 2.61   9 2.93  32 2.97  36 3.02  48 3.08  50 3.13   8 3.13   3 3.14
                            35 3.14  30 3.18  31 3.36   4 3.53  46 3.58
  48  0.895  0.162  0.386-   5 2.73   6 2.77  32 2.83   9 2.92  54 3.00  47 3.08  28 3.25   1 3.33
                            36 3.39
  49  0.859  0.539  0.086-  39 2.76  12 2.81   7 2.85  55 2.97  35 3.12   8 3.14  50 3.19  52 3.21
                            11 3.23  34 3.25  46 3.40
  50  0.835  0.497  0.230-  41 2.76  35 2.79  36 2.88   8 3.01  39 3.03  40 3.03  12 3.03  47 3.13
                             9 3.14  49 3.19  14 3.41  53 3.57
  51  0.849  0.510  0.397-  37 2.60  36 2.79  41 2.94  14 2.99  10 3.05   9 3.13  15 3.34  42 3.39

  52  0.886  0.849  0.099-   3 2.46  12 2.57  30 2.82  39 2.96  16 2.98  84 3.00  53 3.11  49 3.21
                            43 3.57
  53  0.825  0.843  0.238-  41 2.66  30 2.78  14 2.83  39 2.92  12 2.96   3 2.98   5 3.04  32 3.11
                            52 3.11  44 3.29  17 3.49  50 3.57
  54  0.842  0.878  0.403-  32 2.78  14 2.83  45 2.84  10 2.87  37 2.88  48 3.00  28 3.04  41 3.35
                             5 3.39   1 3.56
  55  0.742  0.651  0.973-  49 2.97  77 3.02  34 3.09  80 3.10
  56  0.358  0.005  0.525-  69 2.76   1 2.78  28 3.29
  57  0.106  0.835  0.604-  58 2.78   1 3.14
  58  0.848  0.916  0.573-  57 2.78  69 2.94  67 3.07  28 3.13   1 3.18
  59  0.352  0.669  0.526-  69 2.86  18 3.34
  60  0.047  0.321  0.504-  64 2.46  63 2.56   1 3.01   6 3.31
  61  0.641  0.375  0.509-  65 2.90  42 3.24  37 3.27  28 3.33
  62  0.762  0.709  0.748-  80 2.77  72 2.92
  63  0.298  0.321  0.480-  60 2.56   6 2.95  33 3.16  15 3.17  24 3.38
  64  0.136  0.388  0.604-  60 2.46  70 2.71
  65  0.702  0.531  0.616-  61 2.90  74 3.04
  66  0.446  0.814  0.670-  69 3.13
  67  0.650  0.102  0.636-  74 3.00  58 3.07  72 3.07  71 3.13
  68  0.389  0.535  0.738-
  69  0.575  0.838  0.540-  37 2.75  56 2.76  28 2.82  59 2.86  45 2.91  58 2.94  66 3.13
  70  0.037  0.149  0.627-  64 2.71  75 3.16   1 3.18
  71  0.374  0.210  0.682-  67 3.13
  72  0.642  0.968  0.762-  62 2.92  80 3.07  67 3.07
  73  0.002  0.408  0.750-  75 2.79  74 3.04  83 3.09
  74  0.719  0.327  0.716-  67 3.00  73 3.04  65 3.04
  75  0.969  0.142  0.768-  73 2.79  70 3.16
  76  0.075  0.754  0.820-  80 2.92
  77  0.516  0.767  0.897-  25 2.94  55 3.02  80 3.05
  78  0.522  0.452  0.925-  34 2.74  22 3.11  38 3.24
  79  0.372  0.109  0.839-  82 2.51  81 3.05
  80  0.805  0.823  0.861-  62 2.77  76 2.92  77 3.05  72 3.07  55 3.10
  81  0.144  0.086  0.930-  19 2.66  79 3.05
  82  0.585  0.118  0.900-  79 2.51  29 3.33
  83  0.902  0.334  0.878-  34 2.70  73 3.09   7 3.13
  84  0.854  0.048  0.999-  46 2.49  52 3.00  34 3.31  29 3.31
  85  0.063  0.704  0.965-  25 2.95  11 3.19  16 3.29
  86  0.211  0.453  0.878-
 
  LATTYP: Found a triclinic cell.
 ALAT       =    14.2225946314
 B/A-ratio  =     0.7234449557
 C/A-ratio  =     1.5399236537
 COS(alpha) =     0.0014647352
 COS(beta)  =     0.0042083793
 COS(gamma) =     0.7129266310
  
  Lattice vectors:
  
 A1 = (   9.9748440000, -10.1376080000,  -0.1165730000)
 A2 = (   0.0016820000, -10.2891560000,  -0.0471880000)
 A3 = (  -0.0550650000,   0.0683550000, -21.9015340000)


Analysis of symmetry for initial positions (statically):
=====================================================================
 Subroutine PRICEL returns:
 Original cell was already a primitive cell.
 

 Routine SETGRP: Setting up the symmetry group for a 
 triclinic supercell.


 Subroutine GETGRP returns: Found  1 space group operations
 (whereof  1 operations were pure point group operations)
 out of a pool of  2 trial point group operations.


The static configuration has the point symmetry C_1 .


Analysis of symmetry for dynamics (positions and initial velocities):
=====================================================================
 Subroutine PRICEL returns:
 Original cell was already a primitive cell.
 

 Routine SETGRP: Setting up the symmetry group for a 
 triclinic supercell.


 Subroutine GETGRP returns: Found  1 space group operations
 (whereof  1 operations were pure point group operations)
 out of a pool of  2 trial point group operations.


The dynamic configuration has the point symmetry C_1 .


 Subroutine INISYM returns: Found  1 space group operations
 (whereof  1 operations are pure point group operations),
 and found     1 'primitive' translations


----------------------------------------------------------------------------------------

                                     Primitive cell                                     

  volume of cell :    2247.5126

  direct lattice vectors                    reciprocal lattice vectors
     9.973162000  0.151548000 -0.069385000     0.100267082  0.000017547 -0.000252037
    -0.001682000 10.289156000  0.047188000    -0.001474693  0.097188052  0.000307033
     0.055065000 -0.068355000 21.901534000     0.000320828 -0.000209341  0.045657442

  length of vectors
     9.974554694 10.289264343 21.901709890     0.100267400  0.097199725  0.045659049

  position of ions in fractional coordinates (direct lattice)
     0.087846230  0.031987400  0.494891910
     0.175452740  0.156109600  0.089722840
     0.010239560  0.001384270  0.163656440
     0.199270500  0.178240990  0.226922850
     0.022615530  0.030620080  0.294041310
     0.171763040  0.145019860  0.391158010
     0.011255230  0.366269340  0.010943780
     0.041718470  0.342256380  0.159392510
     0.043838360  0.350140180  0.313884410
     0.024053770  0.703258080  0.464682140
     0.182651800  0.540323180  0.076832120
     0.017985110  0.686431160  0.166124190
     0.199757940  0.517778810  0.232669370
     0.989704420  0.711667070  0.324622870
     0.181268890  0.536800590  0.389836400
     0.181125710  0.869078360  0.081053530
     0.174853130  0.836416300  0.232326010
     0.227780490  0.827643890  0.404194980
     0.335085380  0.995026810  0.004506360
     0.382219430  0.034649800  0.147934750
     0.358154670  0.021136450  0.321122060
     0.321678610  0.342536610  0.020119890
     0.362270780  0.312840520  0.141927160
     0.354127340  0.331958980  0.327533240
     0.347238320  0.704569380  0.002319460
     0.338413310  0.669703550  0.145361970
     0.350510940  0.691517330  0.307010610
     0.664323150  0.059399760  0.477200160
     0.569554130  0.179407140  0.048676770
     0.692602440  0.007933050  0.156813190
     0.512416410  0.182211420  0.253040360
     0.680909200  0.032166480  0.327630800
     0.515573390  0.196171830  0.392229800
     0.748489480  0.351009160  0.978615050
     0.667255320  0.353102610  0.154684650
     0.672920540  0.375609870  0.321961830
     0.732162890  0.669266520  0.473306310
     0.494952960  0.523843880  0.068474270
     0.674335780  0.685059840  0.151480800
     0.532775150  0.523464170  0.232006850
     0.700505290  0.667227930  0.306261390
     0.509704190  0.538695130  0.396712810
     0.531014170  0.874661610  0.079473600
     0.497338410  0.859286470  0.220294320
     0.560439320  0.844906400  0.407337440
     0.841224120  0.209494100  0.083621240
     0.848467410  0.194990020  0.247137340
     0.894973790  0.161894270  0.385601950
     0.859331750  0.539447300  0.086244890
     0.835344600  0.496691770  0.229964170
     0.848518330  0.510179830  0.397334260
     0.885940580  0.848690890  0.098975400
     0.824823040  0.842778020  0.238215530
     0.842159990  0.878115580  0.402803580
     0.741926220  0.650823830  0.972681730
     0.357963160  0.005134140  0.524837420
     0.106327190  0.834786830  0.604427040
     0.848329010  0.916391710  0.572503970
     0.351907200  0.669306890  0.525539880
     0.047234460  0.321484810  0.504089190
     0.640944280  0.375255690  0.509403020
     0.762062160  0.709024830  0.748194110
     0.297958760  0.321433370  0.479710650
     0.136178480  0.387934340  0.604269470
     0.702458980  0.530923040  0.615887680
     0.445911520  0.814376800  0.669570570
     0.650207660  0.101810080  0.636283730
     0.388753360  0.534877630  0.737759260
     0.574825630  0.838107620  0.540016510
     0.036744450  0.149022460  0.627140290
     0.374025760  0.210455690  0.681833810
     0.641809880  0.967588020  0.761707030
     0.001906980  0.408233110  0.749574360
     0.719398730  0.327227770  0.716390850
     0.968986790  0.141834960  0.768090070
     0.075268230  0.754048820  0.820059060
     0.516200730  0.766640650  0.896611750
     0.521572660  0.451860860  0.924847460
     0.372097620  0.109443720  0.838735800
     0.805035170  0.823322450  0.860634760
     0.144250920  0.086483610  0.930287210
     0.584894990  0.117893060  0.899760950
     0.901811430  0.333580750  0.877818370
     0.853811400  0.047505180  0.999195920
     0.063095210  0.704122590  0.964792540
     0.210928820  0.453378940  0.877662730

  ion indices of the primitive-cell ions
   primitive index   ion index
                 1           1
                 2           2
                 3           3
                 4           4
                 5           5
                 6           6
                 7           7
                 8           8
                 9           9
                10          10
                11          11
                12          12
                13          13
                14          14
                15          15
                16          16
                17          17
                18          18
                19          19
                20          20
                21          21
                22          22
                23          23
                24          24
                25          25
                26          26
                27          27
                28          28
                29          29
                30          30
                31          31
                32          32
                33          33
                34          34
                35          35
                36          36
                37          37
                38          38
                39          39
                40          40
                41          41
                42          42
                43          43
                44          44
                45          45
                46          46
                47          47
                48          48
                49          49
                50          50
                51          51
                52          52
                53          53
                54          54
                55          55
                56          56
                57          57
                58          58
                59          59
                60          60
                61          61
                62          62
                63          63
                64          64
                65          65
                66          66
                67          67
                68          68
                69          69
                70          70
                71          71
                72          72
                73          73
                74          74
                75          75
                76          76
                77          77
                78          78
                79          79
                80          80
                81          81
                82          82
                83          83
                84          84
                85          85
                86          86

----------------------------------------------------------------------------------------

 
 -----------------------------------------------------------------------------
|                                                                             |
|           W    W    AA    RRRRR   N    N  II  N    N   GGGG   !!!           |
|           W    W   A  A   R    R  NN   N  II  NN   N  G    G  !!!           |
|           W    W  A    A  R    R  N N  N  II  N N  N  G       !!!           |
|           W WW W  AAAAAA  RRRRR   N  N N  II  N  N N  G  GGG   !            |
|           WW  WW  A    A  R   R   N   NN  II  N   NN  G    G                |
|           W    W  A    A  R    R  N    N  II  N    N   GGGG   !!!           |
|                                                                             |
|     The requested file  could not be found or opened for reading            |
|     k-point information. Automatic k-point generation is used as a          |
|     fallback, which may lead to unwanted results.                           |
|                                                                             |
 -----------------------------------------------------------------------------

 

Automatic generation of k-mesh.
 Grid dimensions derived from KSPACING:
 generate k-points for:    4    4    2

 Generating k-lattice:

  Cartesian coordinates                     Fractional coordinates (reciprocal lattice)
     0.025066771  0.000004387 -0.000063009     0.250000000  0.000000000 -0.000000000
    -0.000368673  0.024297013  0.000076758    -0.000000000  0.250000000 -0.000000000
     0.000160414 -0.000104671  0.022828721     0.000000000  0.000000000  0.500000000

  Length of vectors
     0.025066850  0.024299931  0.022829525

  Shift w.r.t. Gamma in fractional coordinates (k-lattice)
     0.000000000  0.000000000  0.000000000

 
 Subroutine IBZKPT returns following result:
 ===========================================
 
 Found     20 irreducible k-points:
 
 Following reciprocal coordinates:
            Coordinates               Weight
  0.000000  0.000000  0.000000      1.000000
  0.250000  0.000000  0.000000      2.000000
  0.500000  0.000000 -0.000000      1.000000
 -0.000000  0.250000  0.000000      2.000000
  0.250000  0.250000 -0.000000      2.000000
  0.500000  0.250000  0.000000      2.000000
 -0.250000  0.250000 -0.000000      2.000000
 -0.000000  0.500000 -0.000000      1.000000
  0.250000  0.500000  0.000000      2.000000
  0.500000  0.500000 -0.000000      1.000000
 -0.000000  0.000000  0.500000      1.000000
  0.250000 -0.000000  0.500000      2.000000
  0.500000  0.000000  0.500000      1.000000
 -0.000000  0.250000  0.500000      2.000000
  0.250000  0.250000  0.500000      2.000000
  0.500000  0.250000  0.500000      2.000000
 -0.250000  0.250000  0.500000      2.000000
  0.000000  0.500000  0.500000      1.000000
  0.250000  0.500000  0.500000      2.000000
  0.500000  0.500000  0.500000      1.000000
 
 Following cartesian coordinates:
            Coordinates               Weight
  0.000000  0.000000  0.000000      1.000000
  0.025067  0.000004 -0.000063      2.000000
  0.050134  0.000009 -0.000126      1.000000
 -0.000369  0.024297  0.000077      2.000000
  0.024698  0.024301  0.000014      2.000000
  0.049765  0.024306 -0.000049      2.000000
 -0.025435  0.024293  0.000140      2.000000
 -0.000737  0.048594  0.000154      1.000000
  0.024329  0.048598  0.000091      2.000000
  0.049396  0.048603  0.000027      1.000000
  0.000160 -0.000105  0.022829      1.000000
  0.025227 -0.000100  0.022766      2.000000
  0.050294 -0.000096  0.022703      1.000000
 -0.000208  0.024192  0.022905      2.000000
  0.024859  0.024197  0.022842      2.000000
  0.049925  0.024201  0.022779      2.000000
 -0.025275  0.024188  0.022968      2.000000
 -0.000577  0.048489  0.022982      1.000000
  0.024490  0.048494  0.022919      2.000000
  0.049557  0.048498  0.022856      1.000000
 


--------------------------------------------------------------------------------------------------------




 Dimension of arrays:
   k-points           NKPTS =     20   k-points in BZ     NKDIM =     20   number of bands    NBANDS=    588
   number of dos      NEDOS =    301   number of ions     NIONS =     86
   non local maximal  LDIM  =      8   non local SUM 2l+1 LMDIM =     32
   total plane-waves  NPLWV = ******
   max r-space proj   IRMAX =   7951   max aug-charges    IRDMAX=  27073
   dimension x,y,z NGX =    80 NGY =   80 NGZ =  168
   dimension x,y,z NGXF=   160 NGYF=  160 NGZF=  336
   support grid    NGXF=   160 NGYF=  160 NGZF=  336
   ions per type =              54  32
   NGX,Y,Z   is equivalent  to a cutoff of  13.33, 12.93, 12.75 a.u.
   NGXF,Y,Z  is equivalent  to a cutoff of  26.67, 25.85, 25.50 a.u.

 SYSTEM =  unknown system                          
 POSCAR =  Ta Ce                                   

 Startparameter for this run:
   NWRITE =      2    write-flag & timer
   PREC   = accura    normal or accurate (medium, high low for compatibility)
   ISTART =      0    job   : 0-new  1-cont  2-samecut
   ICHARG =      2    charge: 1-file 2-atom 10-const
   ISPIN  =      1    spin polarized calculation?
   LNONCOLLINEAR =      F non collinear calculations
   LSORBIT =      F    spin-orbit coupling
   INIWAV =      1    electr: 0-lowe 1-rand  2-diag
   LASPH  =      T    aspherical Exc in radial PAW
 Electronic Relaxation 1
   ENCUT  =  520.0 eV  38.22 Ry    6.18 a.u.  18.55 19.13 40.72*2*pi/ulx,y,z
   ENINI  =  520.0     initial cutoff
   ENAUG  =  580.2 eV  augmentation charge cutoff
   NELM   =    400;   NELMIN=  2; NELMDL= -5     # of ELM steps 
   EDIFF  = 0.1E-04   stopping-criterion for ELM
   LREAL  =      T    real-space projection
   NLSPLINE    = F    spline interpolate recip. space projectors
   LCOMPAT=      F    compatible to vasp.4.4
   GGA_COMPAT  = T    GGA compatible to vasp.4.4-vasp.4.6
   LMAXPAW     = -100 max onsite density
   LMAXMIX     =    2 max onsite mixed and CHGCAR
   VOSKOWN=      0    Vosko Wilk Nusair interpolation
   ROPT   =   -0.00025  -0.00025
 Ionic relaxation
   EDIFFG = 0.1E-03   stopping-criterion for IOM
   NSW    =      0    number of steps for IOM
   NBLOCK =      1;   KBLOCK =      1    inner block; outer block 
   IBRION =     -1    ionic relax: 0-MD 1-quasi-New 2-CG
   NFREE  =      0    steps in history (QN), initial steepest desc. (CG)
   ISIF   =      2    stress and relaxation
   IWAVPR =     10    prediction:  0-non 1-charg 2-wave 3-comb
   ISYM   =      2    0-nonsym 1-usesym 2-fastsym
   LCORR  =      T    Harris-Foulkes like correction to forces

   POTIM  = 0.5000    time-step for ionic-motion
   TEIN   =    0.0    initial temperature
   TEBEG  =    0.0;   TEEND  =   0.0 temperature during run
   SMASS  =  -3.00    Nose mass-parameter (am)
   estimated Nose-frequenzy (Omega)   =  0.10E-29 period in steps = 0.13E+47 mass=  -0.227E-26a.u.
   SCALEE = 1.0000    scale energy and forces
   NPACO  =    256;   APACO  = 10.0  distance and # of slots for P.C.
   PSTRESS=    0.0 pullay stress

  Mass of Ions in am
   POMASS = 180.95140.12
  Ionic Valenz
   ZVAL   =  11.00 12.00
  Atomic Wigner-Seitz radii
   RWIGS  =  -1.00 -1.00
  virtual crystal weights 
   VCA    =   1.00  1.00
   NELECT =     978.0000    total number of electrons
   NUPDOWN=      -1.0000    fix difference up-down

 DOS related values:
   EMIN   =  10.00;   EMAX   =-10.00  energy-range for DOS
   EFERMI =   0.00
   ISMEAR =     1;   SIGMA  =   0.10  broadening in eV -4-tet -1-fermi 0-gaus

 Electronic relaxation 2 (details)
   IALGO  =     38    algorithm
   LDIAG  =      T    sub-space diagonalisation (order eigenvalues)
   LSUBROT=      F    optimize rotation matrix (better conditioning)
   TURBO    =      0    0=normal 1=particle mesh
   IRESTART =      0    0=no restart 2=restart with 2 vectors
   NREBOOT  =      0    no. of reboots
   NMIN     =      0    reboot dimension
   EREF     =   0.00    reference energy to select bands
   IMIX   =      4    mixing-type and parameters
     AMIX     =   0.40;   BMIX     =  1.00
     AMIX_MAG =   1.60;   BMIX_MAG =  1.00
     AMIN     =   0.10
     WC   =   100.;   INIMIX=   1;  MIXPRE=   1;  MAXMIX= -45

 Intra band minimization:
   WEIMIN = 0.0000     energy-eigenvalue tresh-hold
   EBREAK =  0.43E-08  absolut break condition
   DEPER  =   0.30     relativ break condition  

   TIME   =   0.40     timestep for ELM

  volume/ion in A,a.u.               =      26.13       176.36
  Fermi-wavevector in a.u.,A,eV,Ry     =   1.240568  2.344333 20.939472  1.539008
  Thomas-Fermi vector in A             =   2.375003
 
 Write flags
   LWAVE        =      F    write WAVECAR
   LDOWNSAMPLE  =      F    k-point downsampling of WAVECAR
   LCHARG       =      F    write CHGCAR
   LVTOT        =      F    write LOCPOT, total local potential
   LVHAR        =      F    write LOCPOT, Hartree potential only
   LELF         =      F    write electronic localiz. function (ELF)
   LORBIT       =      0    0 simple, 1 ext, 2 COOP (PROOUT), +10 PAW based schemes


 Dipole corrections
   LMONO  =      F    monopole corrections only (constant potential shift)
   LDIPOL =      F    correct potential (dipole corrections)
   IDIPOL =      0    1-x, 2-y, 3-z, 4-all directions 
   EPSILON=  1.0000000 bulk dielectric constant

 Exchange correlation treatment:
   GGA     =    --    GGA type
   LEXCH   =     8    internal setting for exchange type
   LIBXC   =     F    Libxc                    
   VOSKOWN =     0    Vosko Wilk Nusair interpolation
   LHFCALC =     F    Hartree Fock is set to
   LHFONE  =     F    Hartree Fock one center treatment
   AEXX    =    0.0000 exact exchange contribution

 Linear response parameters
   LEPSILON=     F    determine dielectric tensor
   LRPA    =     F    only Hartree local field effects (RPA)
   LNABLA  =     F    use nabla operator in PAW spheres
   LVEL    =     F    velocity operator in full k-point grid
   CSHIFT  =0.1000    complex shift for real part using Kramers Kronig
   OMEGAMAX=  -1.0    maximum frequency
   DEG_THRESHOLD= 0.2000000E-02 threshold for treating states as degnerate
   RTIME   =   -0.100 relaxation time in fs
  (WPLASMAI=    0.000 imaginary part of plasma frequency in eV, 0.658/RTIME)
   DFIELD  = 0.0000000 0.0000000 0.0000000 field for delta impulse in time
 
  Optional k-point grid parameters
   LKPOINTS_OPT  =     F    use optional k-point grid
   KPOINTS_OPT_MODE=     1    mode for optional k-point grid
 
 Orbital magnetization related:
   ORBITALMAG=     F  switch on orbital magnetization
   LCHIMAG   =     F  perturbation theory with respect to B field
   DQ        =  0.001000  dq finite difference perturbation B field
   LLRAUG    =     F  two centre corrections for induced B field



--------------------------------------------------------------------------------------------------------


 Static calculation
 charge density and potential will be updated during run
 non-spin polarized calculation
 Variant of blocked Davidson
 Davidson routine will perform the subspace rotation
 perform sub-space diagonalisation
    after iterative eigenvector-optimisation
 modified Broyden-mixing scheme, WC =      100.0
 initial mixing is a Kerker type mixing with AMIX =  0.4000 and BMIX =      1.0000
 Hartree-type preconditioning will be used
 using additional bands           99
 real space projection scheme for non local part
 use partial core corrections
 calculate Harris-corrections to forces 
   (improved forces if not selfconsistent)
 use gradient corrections 
 use of overlap-Matrix (Vanderbilt PP)
 Methfessel and Paxton  Order N= 1 SIGMA  =   0.10


--------------------------------------------------------------------------------------------------------


  energy-cutoff  :      520.00
  volume of cell :     2247.51
      direct lattice vectors                 reciprocal lattice vectors
     9.973162000  0.151548000 -0.069385000     0.100267082  0.000017547 -0.000252037
    -0.001682000 10.289156000  0.047188000    -0.001474693  0.097188052  0.000307033
     0.055065000 -0.068355000 21.901534000     0.000320828 -0.000209341  0.045657442

  length of vectors
     9.974554694 10.289264343 21.901709890     0.100267400  0.097199725  0.045659049


 
 k-points in units of 2pi/SCALE and weight: read from INCAR                         
   0.00000000  0.00000000  0.00000000       0.031
   0.02506677  0.00000439 -0.00006301       0.062
   0.05013354  0.00000877 -0.00012602       0.031
  -0.00036867  0.02429701  0.00007676       0.062
   0.02469810  0.02430140  0.00001375       0.062
   0.04976487  0.02430579 -0.00004926       0.062
  -0.02543544  0.02429263  0.00013977       0.062
  -0.00073735  0.04859403  0.00015352       0.031
   0.02432942  0.04859841  0.00009051       0.062
   0.04939619  0.04860280  0.00002750       0.031
   0.00016041 -0.00010467  0.02282872       0.031
   0.02522718 -0.00010028  0.02276571       0.062
   0.05029395 -0.00009590  0.02270270       0.031
  -0.00020826  0.02419234  0.02290548       0.062
   0.02485851  0.02419673  0.02284247       0.062
   0.04992528  0.02420112  0.02277946       0.062
  -0.02527503  0.02418796  0.02296849       0.062
  -0.00057693  0.04848936  0.02298224       0.031
   0.02448984  0.04849374  0.02291923       0.062
   0.04955661  0.04849813  0.02285622       0.031
 
 k-points in reciprocal lattice and weights: read from INCAR                         
   0.00000000  0.00000000  0.00000000       0.031
   0.25000000  0.00000000  0.00000000       0.062
   0.50000000  0.00000000 -0.00000000       0.031
  -0.00000000  0.25000000  0.00000000       0.062
   0.25000000  0.25000000 -0.00000000       0.062
   0.50000000  0.25000000  0.00000000       0.062
  -0.25000000  0.25000000 -0.00000000       0.062
  -0.00000000  0.50000000 -0.00000000       0.031
   0.25000000  0.50000000  0.00000000       0.062
   0.50000000  0.50000000 -0.00000000       0.031
  -0.00000000  0.00000000  0.50000000       0.031
   0.25000000 -0.00000000  0.50000000       0.062
   0.50000000  0.00000000  0.50000000       0.031
  -0.00000000  0.25000000  0.50000000       0.062
   0.25000000  0.25000000  0.50000000       0.062
   0.50000000  0.25000000  0.50000000       0.062
  -0.25000000  0.25000000  0.50000000       0.062
   0.00000000  0.50000000  0.50000000       0.031
   0.25000000  0.50000000  0.50000000       0.062
   0.50000000  0.50000000  0.50000000       0.031
 
 position of ions in fractional coordinates (direct lattice) 
   0.08784623  0.03198740  0.49489191
   0.17545274  0.15610960  0.08972284
   0.01023956  0.00138427  0.16365644
   0.19927050  0.17824099  0.22692285
   0.02261553  0.03062008  0.29404131
   0.17176304  0.14501986  0.39115801
   0.01125523  0.36626934  0.01094378
   0.04171847  0.34225638  0.15939251
   0.04383836  0.35014018  0.31388441
   0.02405377  0.70325808  0.46468214
   0.18265180  0.54032318  0.07683212
   0.01798511  0.68643116  0.16612419
   0.19975794  0.51777881  0.23266937
   0.98970442  0.71166707  0.32462287
   0.18126889  0.53680059  0.38983640
   0.18112571  0.86907836  0.08105353
   0.17485313  0.83641630  0.23232601
   0.22778049  0.82764389  0.40419498
   0.33508538  0.99502681  0.00450636
   0.38221943  0.03464980  0.14793475
   0.35815467  0.02113645  0.32112206
   0.32167861  0.34253661  0.02011989
   0.36227078  0.31284052  0.14192716
   0.35412734  0.33195898  0.32753324
   0.34723832  0.70456938  0.00231946
   0.33841331  0.66970355  0.14536197
   0.35051094  0.69151733  0.30701061
   0.66432315  0.05939976  0.47720016
   0.56955413  0.17940714  0.04867677
   0.69260244  0.00793305  0.15681319
   0.51241641  0.18221142  0.25304036
   0.68090920  0.03216648  0.32763080
   0.51557339  0.19617183  0.39222980
   0.74848948  0.35100916  0.97861505
   0.66725532  0.35310261  0.15468465
   0.67292054  0.37560987  0.32196183
   0.73216289  0.66926652  0.47330631
   0.49495296  0.52384388  0.06847427
   0.67433578  0.68505984  0.15148080
   0.53277515  0.52346417  0.23200685
   0.70050529  0.66722793  0.30626139
   0.50970419  0.53869513  0.39671281
   0.53101417  0.87466161  0.07947360
   0.49733841  0.85928647  0.22029432
   0.56043932  0.84490640  0.40733744
   0.84122412  0.20949410  0.08362124
   0.84846741  0.19499002  0.24713734
   0.89497379  0.16189427  0.38560195
   0.85933175  0.53944730  0.08624489
   0.83534460  0.49669177  0.22996417
   0.84851833  0.51017983  0.39733426
   0.88594058  0.84869089  0.09897540
   0.82482304  0.84277802  0.23821553
   0.84215999  0.87811558  0.40280358
   0.74192622  0.65082383  0.97268173
   0.35796316  0.00513414  0.52483742
   0.10632719  0.83478683  0.60442704
   0.84832901  0.91639171  0.57250397
   0.35190720  0.66930689  0.52553988
   0.04723446  0.32148481  0.50408919
   0.64094428  0.37525569  0.50940302
   0.76206216  0.70902483  0.74819411
   0.29795876  0.32143337  0.47971065
   0.13617848  0.38793434  0.60426947
   0.70245898  0.53092304  0.61588768
   0.44591152  0.81437680  0.66957057
   0.65020766  0.10181008  0.63628373
   0.38875336  0.53487763  0.73775926
   0.57482563  0.83810762  0.54001651
   0.03674445  0.14902246  0.62714029
   0.37402576  0.21045569  0.68183381
   0.64180988  0.96758802  0.76170703
   0.00190698  0.40823311  0.74957436
   0.71939873  0.32722777  0.71639085
   0.96898679  0.14183496  0.76809007
   0.07526823  0.75404882  0.82005906
   0.51620073  0.76664065  0.89661175
   0.52157266  0.45186086  0.92484746
   0.37209762  0.10944372  0.83873580
   0.80503517  0.82332245  0.86063476
   0.14425092  0.08648361  0.93028721
   0.58489499  0.11789306  0.89976095
   0.90181143  0.33358075  0.87781837
   0.85381140  0.04750518  0.99919592
   0.06309521  0.70412259  0.96479254
   0.21092882  0.45337894  0.87766273
 
 position of ions in cartesian coordinates  (Angst):
   0.90330210  0.30860793 10.83430620
   1.75449661  1.62669253  1.96026054
   0.11113020  0.00460802  3.58368193
   1.99955268  1.84863709  4.96454297
   0.24168823  0.29838292  6.43983147
   1.73431582  1.49142470  8.56188587
   0.11223679  3.76956002  0.25618814
   0.42426633  3.51695636  3.50419624
   0.45390218  3.58783498  6.88803077
   0.26429699  7.20781405 10.20876806
   1.82493793  5.58189814  1.69556476
   0.18736147  7.05416748  3.66951801
   2.00415933  5.34187575  5.10638886
   9.88716085  7.45025163  7.07465033
   1.82838745  5.52404868  8.55076837
   1.80939747  8.96399165  1.80363931
   1.75522477  8.61663579  5.11563264
   2.29255663  8.52264803  8.87574041
   3.34043529 10.28845956  0.12239962
   3.82002404  0.40432971  3.21511272
   3.58958158  0.24980356  7.00921254
   3.20868464  3.57178707  0.43450040
   3.62027420  3.26406489  3.09804868
   3.54924659  3.44685649  7.16457375
   3.46200665  7.30188899  0.05995382
   3.38192868  6.93203394  3.19177129
   3.51144479  7.14726321  6.73231443
   6.65157951  0.67923122 10.40812442
   5.68263423  1.92893554  1.03504328
   6.91605791  0.17586794  3.38676754
   5.12403906  1.93516083  5.51501623
   6.80880464  0.41176115  7.12989009
   5.16316511  2.06976581  8.56391820
   7.51810388  3.65812686 21.39780027
   6.66256919  3.72367558  3.35819582
   6.72824261  3.94468061  7.02249165
   7.32691602  6.96479260 10.34691447
   4.93913548  5.46023997  1.49006839
   6.73244900  7.14052733  3.30319971
   5.32534787  5.45088669  5.06904054
   7.00199475  6.95043794  6.69047484
   5.10430136  5.59284558  8.67867322
   5.29879537  9.07457147  1.74502287
   4.97072172  8.90164496  4.83082372
   5.61036103  8.75046366  8.92229815
   8.39391666  2.27728738  1.78295070
   8.47518358  2.11797320  5.36301713
   8.94667946  1.77502907  8.39081593
   8.57409648  5.67479216  1.85472610
   8.34285456  5.22141471  5.00204559
   8.48343185  5.35075133  8.66742973
   8.83965151  8.85981002  2.14629013
   8.23779358  8.78019158  5.19982419
   8.41970140  9.13516221  8.80501955
   7.45181642  6.74237769 21.28245450
   3.59891612  0.07119931 11.47014959
   1.09229695  8.56404998 13.26989378
   8.49050621  9.51832632 12.52309655
   3.53744059  6.90401056 11.51729572
   0.49829386  3.28050863 11.05221940
   6.41966023  3.92337791 11.12994321
   7.64017610  7.35961327 16.36718052
   2.99746560  3.31964252 10.50089304
   1.39075163  3.97084968 13.24328544
   7.03875805  5.52710723 13.46519804
   4.48264795  8.40105844 14.67211185
   6.51949205  1.10258429 13.89527930
   3.91682529  5.51192464 16.15632567
   5.76115544  8.67362089 11.82685430
   0.40074118  1.49601571 13.73981694
   3.76741069  2.17548753 14.91718558
   6.44118982 10.00086260 16.68367898
   0.05960728  4.14942600 16.43595972
   7.21357774  3.42695212 15.65558430
   9.70591855  1.55370724 16.76181054
   0.79455049  7.71387755 17.99091095
   5.19623594  7.90502654 19.63753238
   5.25189533  4.66509222 20.24071118
   3.75699075  1.12514237 18.34894708
   8.07475219  8.53446591 18.83221503
   1.48971859  0.84811451 20.36878910
   5.88259953  1.24015659 19.67112524
   9.04168747  3.50892882 19.17873770
   8.57014023  0.54988158 21.82692338
   0.68120072  7.18844073 21.15928489
   2.15119321  4.63685985 19.22891887
 


--------------------------------------------------------------------------------------------------------


 k-point   1 :   0.0000 0.0000 0.0000  plane waves:   60505
 k-point   2 :   0.2500 0.0000 0.0000  plane waves:   60508
 k-point   3 :   0.5000 0.0000-0.0000  plane waves:   60444
 k-point   4 :  -0.0000 0.2500 0.0000  plane waves:   60567
 k-point   5 :   0.2500 0.2500-0.0000  plane waves:   60548
 k-point   6 :   0.5000 0.2500 0.0000  plane waves:   60492
 k-point   7 :  -0.2500 0.2500-0.0000  plane waves:   60512
 k-point   8 :  -0.0000 0.5000-0.0000  plane waves:   60534
 k-point   9 :   0.2500 0.5000 0.0000  plane waves:   60541
 k-point  10 :   0.5000 0.5000-0.0000  plane waves:   60518
 k-point  11 :  -0.0000 0.0000 0.5000  plane waves:   60538
 k-point  12 :   0.2500-0.0000 0.5000  plane waves:   60508
 k-point  13 :   0.5000 0.0000 0.5000  plane waves:   60478
 k-point  14 :  -0.0000 0.2500 0.5000  plane waves:   60552
 k-point  15 :   0.2500 0.2500 0.5000  plane waves:   60537
 k-point  16 :   0.5000 0.2500 0.5000  plane waves:   60486
 k-point  17 :  -0.2500 0.2500 0.5000  plane waves:   60493
 k-point  18 :   0.0000 0.5000 0.5000  plane waves:   60516
 k-point  19 :   0.2500 0.5000 0.5000  plane waves:   60531
 k-point  20 :   0.5000 0.5000 0.5000  plane waves:   60484

 maximum and minimum number of plane-waves per node :     60567    60444

 maximum number of plane-waves:     60567
 maximum index in each direction: 
   IXMAX=   18   IYMAX=   19   IZMAX=   40
   IXMIN=  -19   IYMIN=  -19   IZMIN=  -41


 serial   3D FFT for wavefunctions
 parallel 3D FFT for charge:
    minimum data exchange during FFTs selected (reduces bandwidth)


 total amount of memory used by VASP MPI-rank0  3364440. kBytes
=======================================================================

   base      :      30000. kBytes
   nonlr-proj:     146327. kBytes
   fftplans  :      76832. kBytes
   grid      :     164044. kBytes
   one-center:       4227. kBytes
   wavefun   :    2943010. kBytes
 
     INWAV:  cpu time      0.0001: real time      0.0000
 Broyden mixing: mesh for mixing (old mesh)
   NGX = 37   NGY = 39   NGZ = 81
  (NGX  =160   NGY  =160   NGZ  =336)
  gives a total of 116883 points

 initial charge density was supplied:
 charge density of overlapping atoms calculated
 number of electron     978.0000000 magnetization 
 keeping initial charge density in first step


--------------------------------------------------------------------------------------------------------


 Maximum index for non-local projection operator         7692
 Maximum index for augmentation-charges         6543 (set IRDMAX)


--------------------------------------------------------------------------------------------------------


 First call to EWALD:  gamma=   0.135
 Maximum number of real-space cells 3x 3x 2
 Maximum number of reciprocal cells 2x 2x 4

    FEWALD:  cpu time      0.0143: real time      0.0071


--------------------------------------- Iteration      1(   1)  ---------------------------------------


    POTLOK:  cpu time      4.0514: real time      0.6387
    SETDIJ:  cpu time     11.4652: real time      5.1650
     EDDAV:  cpu time    473.8533: real time     68.4955
       DOS:  cpu time      0.0847: real time      0.0121
    --------------------------------------------
      LOOP:  cpu time    489.4550: real time     74.3113

 eigenvalue-minimisations  : 23688
 total energy-change (2. order) : 0.1467287E+05  (-0.4169895E+05)
 number of electron     978.0000000 magnetization 
 augmentation part      978.0000000 magnetization 

 Free energy of the ion-electron system (eV)
  ---------------------------------------------------
  alpha Z        PSCENC =      7339.51995249
  Ewald energy   TEWEN  =    -49612.65161590
  -Hartree energ DENC   =    -40870.05737054
  -exchange      EXHF   =         0.00000000
  -V(xc)+E(xc)   XCENC  =      1417.75030911
  PAW double counting   =     71558.09676363   -69890.81646796
  entropy T*S    EENTRO =         0.00256064
  eigenvalues    EBANDS =      4164.07160696
  atomic energy  EATOM  =     90566.95454612
  Solvation  Ediel_sol  =         0.00000000
  ---------------------------------------------------
  free energy    TOTEN  =     14672.87028455 eV

  energy without entropy =    14672.86772390  energy(sigma->0) =    14672.86943100


--------------------------------------------------------------------------------------------------------




--------------------------------------- Iteration      1(   2)  ---------------------------------------


     EDDAV:  cpu time    515.4656: real time     74.2240
       DOS:  cpu time      0.0814: real time      0.0116
    --------------------------------------------
      LOOP:  cpu time    515.5468: real time     74.2356

 eigenvalue-minimisations  : 26384
 total energy-change (2. order) :-0.1239924E+05  (-0.1189335E+05)
 number of electron     978.0000000 magnetization 
 augmentation part      978.0000000 magnetization 

 Free energy of the ion-electron system (eV)
  ---------------------------------------------------
  alpha Z        PSCENC =      7339.51995249
  Ewald energy   TEWEN  =    -49612.65161590
  -Hartree energ DENC   =    -40870.05737054
  -exchange      EXHF   =         0.00000000
  -V(xc)+E(xc)   XCENC  =      1417.75030911
  PAW double counting   =     71558.09676363   -69890.81646796
  entropy T*S    EENTRO =         0.00001977
  eigenvalues    EBANDS =     -8235.16258524
  atomic energy  EATOM  =     90566.95454612
  Solvation  Ediel_sol  =         0.00000000
  ---------------------------------------------------
  free energy    TOTEN  =      2273.63355147 eV

  energy without entropy =     2273.63353170  energy(sigma->0) =     2273.63354488


--------------------------------------------------------------------------------------------------------




--------------------------------------- Iteration      1(   3)  ---------------------------------------


     EDDAV:  cpu time    495.7898: real time     71.5035
       DOS:  cpu time      0.0917: real time      0.0131
    --------------------------------------------
      LOOP:  cpu time    495.8816: real time     71.5166

 eigenvalue-minimisations  : 25360
 total energy-change (2. order) :-0.2610734E+04  (-0.2523843E+04)
 number of electron     978.0000000 magnetization 
 augmentation part      978.0000000 magnetization 

 Free energy of the ion-electron system (eV)
  ---------------------------------------------------
  alpha Z        PSCENC =      7339.51995249
  Ewald energy   TEWEN  =    -49612.65161590
  -Hartree energ DENC   =    -40870.05737054
  -exchange      EXHF   =         0.00000000
  -V(xc)+E(xc)   XCENC  =      1417.75030911
  PAW double counting   =     71558.09676363   -69890.81646796
  entropy T*S    EENTRO =        -0.01136163
  eigenvalues    EBANDS =    -10845.88505581
  atomic energy  EATOM  =     90566.95454612
  Solvation  Ediel_sol  =         0.00000000
  ---------------------------------------------------
  free energy    TOTEN  =      -337.10030049 eV

  energy without entropy =     -337.08893887  energy(sigma->0) =     -337.09651328


--------------------------------------------------------------------------------------------------------




--------------------------------------- Iteration      1(   4)  ---------------------------------------


     EDDAV:  cpu time    680.0363: real time     98.0832
       DOS:  cpu time      0.0883: real time      0.0126
    --------------------------------------------
      LOOP:  cpu time    680.1246: real time     98.0958

 eigenvalue-minimisations  : 37432
 total energy-change (2. order) :-0.4763979E+03  (-0.4450827E+03)
 number of electron     978.0000000 magnetization 
 augmentation part      978.0000000 magnetization 

 Free energy of the ion-electron system (eV)
  ---------------------------------------------------
  alpha Z        PSCENC =      7339.51995249
  Ewald energy   TEWEN  =    -49612.65161590
  -Hartree energ DENC   =    -40870.05737054
  -exchange      EXHF   =         0.00000000
  -V(xc)+E(xc)   XCENC  =      1417.75030911
  PAW double counting   =     71558.09676363   -69890.81646796
  entropy T*S    EENTRO =        -0.00758399
  eigenvalues    EBANDS =    -11322.28677769
  atomic energy  EATOM  =     90566.95454612
  Solvation  Ediel_sol  =         0.00000000
  ---------------------------------------------------
  free energy    TOTEN  =      -813.49824474 eV

  energy without entropy =     -813.49066075  energy(sigma->0) =     -813.49571674


--------------------------------------------------------------------------------------------------------




--------------------------------------- Iteration      1(   5)  ---------------------------------------


     EDDAV:  cpu time    729.8870: real time    105.1517
       DOS:  cpu time      0.0881: real time      0.0126
    CHARGE:  cpu time      2.7968: real time      1.2981
    MIXING:  cpu time      0.1328: real time      0.0199
    --------------------------------------------
      LOOP:  cpu time    732.9052: real time    106.4823

 eigenvalue-minimisations  : 40624
 total energy-change (2. order) :-0.7598606E+02  (-0.6984291E+02)
 number of electron     978.0000014 magnetization 
 augmentation part      184.0640766 magnetization 

 Broyden mixing:
  rms(total) = 0.16535E+02    rms(broyden)= 0.16535E+02
  rms(prec ) = 0.21873E+02
  weight for this iteration     100.00

 Free energy of the ion-electron system (eV)
  ---------------------------------------------------
  alpha Z        PSCENC =      7339.51995249
  Ewald energy   TEWEN  =    -49612.65161590
  -Hartree energ DENC   =    -40870.05737054
  -exchange      EXHF   =         0.00000000
  -V(xc)+E(xc)   XCENC  =      1417.75030911
  PAW double counting   =     71558.09676363   -69890.81646796
  entropy T*S    EENTRO =         0.00402151
  eigenvalues    EBANDS =    -11398.28444404
  atomic energy  EATOM  =     90566.95454612
  Solvation  Ediel_sol  =         0.00000000
  ---------------------------------------------------
  free energy    TOTEN  =      -889.48430559 eV

  energy without entropy =     -889.48832710  energy(sigma->0) =     -889.48564609


--------------------------------------------------------------------------------------------------------




--------------------------------------- Iteration      1(   6)  ---------------------------------------


    POTLOK:  cpu time      3.6031: real time      0.5148
    SETDIJ:  cpu time     11.0895: real time      4.9773
     EDDAV:  cpu time    627.1474: real time     90.5834
       DOS:  cpu time      0.0780: real time      0.0111
    CHARGE:  cpu time      2.5004: real time      1.1603
    MIXING:  cpu time      0.1283: real time      0.0183
    --------------------------------------------
      LOOP:  cpu time    644.5466: real time     97.2653

 eigenvalue-minimisations  : 33944
 total energy-change (2. order) :-0.1256913E+04  (-0.2580351E+04)
 number of electron     978.0000012 magnetization 
 augmentation part      220.5274947 magnetization 

 Broyden mixing:
  rms(total) = 0.11776E+03    rms(broyden)= 0.11776E+03
  rms(prec ) = 0.11925E+03
  weight for this iteration     100.00

 eigenvalues of (default mixing * dielectric matrix)
  average eigenvalue GAMMA=   0.0053
  0.0053

 Free energy of the ion-electron system (eV)
  ---------------------------------------------------
  alpha Z        PSCENC =      7339.51995249
  Ewald energy   TEWEN  =    -49612.65161590
  -Hartree energ DENC   =    -39083.22255023
  -exchange      EXHF   =         0.00000000
  -V(xc)+E(xc)   XCENC  =      1417.72577348
  PAW double counting   =     86200.08006971   -84862.06743739
  entropy T*S    EENTRO =         0.00232520
  eigenvalues    EBANDS =    -14112.73830165
  atomic energy  EATOM  =     90566.95454612
  Solvation  Ediel_sol  =         0.00000000
  ---------------------------------------------------
  free energy    TOTEN  =     -2146.39723817 eV

  energy without entropy =    -2146.39956337  energy(sigma->0) =    -2146.39801324


--------------------------------------------------------------------------------------------------------




--------------------------------------- Iteration      1(   7)  ---------------------------------------


    POTLOK:  cpu time      3.6542: real time      0.5221
    SETDIJ:  cpu time     11.6756: real time      5.2706
     EDDAV:  cpu time    817.7097: real time    117.8857
       DOS:  cpu time      0.0821: real time      0.0117
    CHARGE:  cpu time      2.8189: real time      1.1805
    MIXING:  cpu time      0.1203: real time      0.0172
    --------------------------------------------
      LOOP:  cpu time    836.0608: real time    124.8878

 eigenvalue-minimisations  : 46296
 total energy-change (2. order) :-0.1642705E+04  (-0.1606572E+04)
 number of electron     978.0000014 magnetization 
 augmentation part      180.3416322 magnetization 

 Broyden mixing:
  rms(total) = 0.32989E+02    rms(broyden)= 0.32989E+02
  rms(prec ) = 0.43416E+02
  weight for this iteration     100.00

 eigenvalues of (default mixing * dielectric matrix)
  average eigenvalue GAMMA=   0.1007
  0.1627  0.0387

 Free energy of the ion-electron system (eV)
  ---------------------------------------------------
  alpha Z        PSCENC =      7339.51995249
  Ewald energy   TEWEN  =    -49612.65161590
  -Hartree energ DENC   =    -39111.91092862
  -exchange      EXHF   =         0.00000000
  -V(xc)+E(xc)   XCENC  =      1416.78921387
  PAW double counting   =     87012.96275669   -85680.30137606
  entropy T*S    EENTRO =         0.00233415
  eigenvalues    EBANDS =    -15720.46697080
  atomic energy  EATOM  =     90566.95454612
  Solvation  Ediel_sol  =         0.00000000
  ---------------------------------------------------
  free energy    TOTEN  =     -3789.10208806 eV

  energy without entropy =    -3789.10442221  energy(sigma->0) =    -3789.10286611


--------------------------------------------------------------------------------------------------------




--------------------------------------- Iteration      1(   8)  ---------------------------------------


    POTLOK:  cpu time      3.6067: real time      0.5153
    SETDIJ:  cpu time     11.0915: real time      4.9784
     EDDAV:  cpu time    723.6858: real time    104.1970
       DOS:  cpu time      0.0821: real time      0.0117
    CHARGE:  cpu time      2.6143: real time      1.2184
    MIXING:  cpu time      0.1213: real time      0.0173
    --------------------------------------------
      LOOP:  cpu time    741.2017: real time    110.9381

 eigenvalue-minimisations  : 40180
 total energy-change (2. order) : 0.1884670E+04  (-0.6142847E+03)
 number of electron     977.9999999 magnetization 
 augmentation part      213.2870690 magnetization 

 Broyden mixing:
  rms(total) = 0.46428E+02    rms(broyden)= 0.46428E+02
  rms(prec ) = 0.50143E+02
  weight for this iteration     100.00

 eigenvalues of (default mixing * dielectric matrix)
  average eigenvalue GAMMA=   0.1268
  0.1737  0.1737  0.0330

 Free energy of the ion-electron system (eV)
  ---------------------------------------------------
  alpha Z        PSCENC =      7339.51995249
  Ewald energy   TEWEN  =    -49612.65161590
  -Hartree energ DENC   =    -40297.70997044
  -exchange      EXHF   =         0.00000000
  -V(xc)+E(xc)   XCENC  =      1404.57085987
  PAW double counting   =     91389.24973206   -90025.96007312
  entropy T*S    EENTRO =        -0.00046921
  eigenvalues    EBANDS =    -12668.40465909
  atomic energy  EATOM  =     90566.95454612
  Solvation  Ediel_sol  =         0.00000000
  ---------------------------------------------------
  free energy    TOTEN  =     -1904.43169722 eV

  energy without entropy =    -1904.43122801  energy(sigma->0) =    -1904.43154082


--------------------------------------------------------------------------------------------------------




--------------------------------------- Iteration      1(   9)  ---------------------------------------


    POTLOK:  cpu time      3.5083: real time      0.5012
    SETDIJ:  cpu time     11.1636: real time      5.0148
     EDDAV:  cpu time    725.5853: real time    104.3358
       DOS:  cpu time      0.1423: real time      0.0217
    CHARGE:  cpu time      2.8306: real time      1.2250
    MIXING:  cpu time      0.1556: real time      0.0222
    --------------------------------------------
      LOOP:  cpu time    743.3859: real time    111.1207

 eigenvalue-minimisations  : 40400
 total energy-change (2. order) : 0.2570128E+03  (-0.2244868E+03)
 number of electron     978.0000021 magnetization 
 augmentation part      170.4438028 magnetization 

 Broyden mixing:
  rms(total) = 0.24533E+02    rms(broyden)= 0.24533E+02
  rms(prec ) = 0.31335E+02
  weight for this iteration     100.00

 eigenvalues of (default mixing * dielectric matrix)
  average eigenvalue GAMMA=   0.1864
  0.3014  0.3014  0.0338  0.1091

 Free energy of the ion-electron system (eV)
  ---------------------------------------------------
  alpha Z        PSCENC =      7339.51995249
  Ewald energy   TEWEN  =    -49612.65161590
  -Hartree energ DENC   =    -40471.38532672
  -exchange      EXHF   =         0.00000000
  -V(xc)+E(xc)   XCENC  =      1404.59318490
  PAW double counting   =     91544.87227033   -90188.65753165
  entropy T*S    EENTRO =         0.00489023
  eigenvalues    EBANDS =    -12230.66930480
  atomic energy  EATOM  =     90566.95454612
  Solvation  Ediel_sol  =         0.00000000
  ---------------------------------------------------
  free energy    TOTEN  =     -1647.41893500 eV

  energy without entropy =    -1647.42382523  energy(sigma->0) =    -1647.42056507


--------------------------------------------------------------------------------------------------------




--------------------------------------- Iteration      1(  10)  ---------------------------------------


    POTLOK:  cpu time      3.5961: real time      0.5144
    SETDIJ:  cpu time     11.7682: real time      5.3172
     EDDAV:  cpu time    707.5157: real time    101.9291
       DOS:  cpu time      0.0822: real time      0.0117
    CHARGE:  cpu time      2.3919: real time      1.2663
    MIXING:  cpu time      0.1547: real time      0.0221
    --------------------------------------------
      LOOP:  cpu time    725.5088: real time    109.0609

 eigenvalue-minimisations  : 39056
 total energy-change (2. order) : 0.4095240E+03  (-0.4656979E+03)
 number of electron     978.0000005 magnetization 
 augmentation part      209.7603071 magnetization 

 Broyden mixing:
  rms(total) = 0.28881E+02    rms(broyden)= 0.28881E+02
  rms(prec ) = 0.31901E+02
  weight for this iteration     100.00

 eigenvalues of (default mixing * dielectric matrix)
  average eigenvalue GAMMA=   0.1933
  0.3379  0.3379  0.0337  0.1285  0.1285

 Free energy of the ion-electron system (eV)
  ---------------------------------------------------
  alpha Z        PSCENC =      7339.51995249
  Ewald energy   TEWEN  =    -49612.65161590
  -Hartree energ DENC   =    -40964.07307679
  -exchange      EXHF   =         0.00000000
  -V(xc)+E(xc)   XCENC  =      1405.62717649
  PAW double counting   =     91741.38961208   -90369.46063727
  entropy T*S    EENTRO =         0.00765439
  eigenvalues    EBANDS =    -11345.20858602
  atomic energy  EATOM  =     90566.95454612
  Solvation  Ediel_sol  =         0.00000000
  ---------------------------------------------------
  free energy    TOTEN  =     -1237.89497440 eV

  energy without entropy =    -1237.90262880  energy(sigma->0) =    -1237.89752587


--------------------------------------------------------------------------------------------------------




--------------------------------------- Iteration      1(  11)  ---------------------------------------


    POTLOK:  cpu time      3.5966: real time      0.5138
    SETDIJ:  cpu time     11.1412: real time      5.0030
     EDDAV:  cpu time    613.8114: real time     88.4230
       DOS:  cpu time      0.0846: real time      0.0121
    CHARGE:  cpu time      2.8402: real time      1.2082
    MIXING:  cpu time      0.1549: real time      0.0222
    --------------------------------------------
      LOOP:  cpu time    631.6288: real time     95.1822

 eigenvalue-minimisations  : 33016
 total energy-change (2. order) : 0.1000674E+03  (-0.2323343E+03)
 number of electron     978.0000007 magnetization 
 augmentation part      174.5460911 magnetization 

 Broyden mixing:
  rms(total) = 0.18394E+02    rms(broyden)= 0.18394E+02
  rms(prec ) = 0.22116E+02
  weight for this iteration     100.00

 eigenvalues of (default mixing * dielectric matrix)
  average eigenvalue GAMMA=   0.2217
  0.4199  0.4199  0.0337  0.1704  0.1704  0.1162

 Free energy of the ion-electron system (eV)
  ---------------------------------------------------
  alpha Z        PSCENC =      7339.51995249
  Ewald energy   TEWEN  =    -49612.65161590
  -Hartree energ DENC   =    -40961.77980738
  -exchange      EXHF   =         0.00000000
  -V(xc)+E(xc)   XCENC  =      1406.77698399
  PAW double counting   =     92246.23299905   -90893.14763230
  entropy T*S    EENTRO =         0.00366587
  eigenvalues    EBANDS =    -11229.73667417
  atomic energy  EATOM  =     90566.95454612
  Solvation  Ediel_sol  =         0.00000000
  ---------------------------------------------------
  free energy    TOTEN  =     -1137.82758223 eV

  energy without entropy =    -1137.83124809  energy(sigma->0) =    -1137.82880418


--------------------------------------------------------------------------------------------------------




--------------------------------------- Iteration      1(  12)  ---------------------------------------


    POTLOK:  cpu time      3.5440: real time      0.5065
    SETDIJ:  cpu time     11.7083: real time      5.2876
     EDDAV:  cpu time    689.4717: real time     99.1938
       DOS:  cpu time      0.0818: real time      0.0117
    CHARGE:  cpu time      2.7340: real time      1.2770
    MIXING:  cpu time      0.1637: real time      0.0234
    --------------------------------------------
      LOOP:  cpu time    707.7035: real time    106.2999

 eigenvalue-minimisations  : 37872
 total energy-change (2. order) : 0.9293497E+02  (-0.4521453E+03)
 number of electron     978.0000016 magnetization 
 augmentation part      184.0275870 magnetization 

 Broyden mixing:
  rms(total) = 0.45986E+02    rms(broyden)= 0.45986E+02
  rms(prec ) = 0.47379E+02
  weight for this iteration     100.00

 eigenvalues of (default mixing * dielectric matrix)
  average eigenvalue GAMMA=   0.2057
  0.4495  0.4495  0.1718  0.1718  0.0337  0.1039  0.0597

 Free energy of the ion-electron system (eV)
  ---------------------------------------------------
  alpha Z        PSCENC =      7339.51995249
  Ewald energy   TEWEN  =    -49612.65161590
  -Hartree energ DENC   =    -41180.53425253
  -exchange      EXHF   =         0.00000000
  -V(xc)+E(xc)   XCENC  =      1406.66500637
  PAW double counting   =     93154.05096596   -91795.46874528
  entropy T*S    EENTRO =        -0.00054669
  eigenvalues    EBANDS =    -10923.42791917
  atomic energy  EATOM  =     90566.95454612
  Solvation  Ediel_sol  =         0.00000000
  ---------------------------------------------------
  free energy    TOTEN  =     -1044.89260863 eV

  energy without entropy =    -1044.89206193  energy(sigma->0) =    -1044.89242639


--------------------------------------------------------------------------------------------------------




--------------------------------------- Iteration      1(  13)  ---------------------------------------


    POTLOK:  cpu time      3.5635: real time      0.5091
    SETDIJ:  cpu time     11.0921: real time      4.9785
     EDDAV:  cpu time    673.0508: real time     96.8680
       DOS:  cpu time      0.1370: real time      0.0208
    CHARGE:  cpu time      2.7084: real time      1.2946
    MIXING:  cpu time      0.1373: real time      0.0196
    --------------------------------------------
      LOOP:  cpu time    690.6892: real time    103.6907

 eigenvalue-minimisations  : 36664
 total energy-change (2. order) : 0.1814880E+02  (-0.1323468E+03)
 number of electron     978.0000012 magnetization 
 augmentation part      166.5068736 magnetization 

 Broyden mixing:
  rms(total) = 0.13812E+02    rms(broyden)= 0.13812E+02
  rms(prec ) = 0.16861E+02
  weight for this iteration     100.00

 eigenvalues of (default mixing * dielectric matrix)
  average eigenvalue GAMMA=   0.2161
  0.4829  0.4829  0.2146  0.2146  0.0337  0.1127  0.1127  0.0745

 Free energy of the ion-electron system (eV)
  ---------------------------------------------------
  alpha Z        PSCENC =      7339.51995249
  Ewald energy   TEWEN  =    -49612.65161590
  -Hartree energ DENC   =    -41189.31685816
  -exchange      EXHF   =         0.00000000
  -V(xc)+E(xc)   XCENC  =      1406.44647659
[...]
  199        setdij_                               1.415532                           20   3
  200          m_sumb_d                              0.027486                         20   4
  201        set_dd_magatom                        0.000005                            1   3
  202        set_dd_paw                            4.959128                            1   3
  203          m_sumb_d                              0.240434                          7   4
  204        strkin                                0.189626                            1   3
  205          m_sumb_d                              0.005297                          1   4
  206        strelo                                0.007502                            1   3
  207          m_sumb_d                              0.000050                          2   4
  208        strnlr                               35.924279                            1   3
  209          rspher_all                            1.401753                          9   4
  210          phaser                                6.081131                        180   4
  211          rpro_isp                             28.305496                        180   4
  212            fftwav_mpi                            0.642583                    26460   5
  213              fftwav                                0.604067                  26460   6
  214                fft3d                                 0.368012                26460   7
  215            rpromu_acc                           27.524787                     6660   5
  216          m_sumb_d                              0.000022                          1   4
  217        fft3d_mpi                             0.198769                           11   3
  218          fftbrc_mpi                            0.176240                         11   4
  219            fftbas_plan_mpi                       0.176221                       11   5
  220              dfftw_execute                         0.046699                     33   6
  221              map_forward                           0.050380                     10   6
  222                map_gather                            0.017871                    5   7
  223                m_alltoallv_z                         0.022747                    5   7
  224                map_scatter                           0.009717                    5   7
  225              map_backward                          0.077963                     12   6
  226                map_gather                            0.012999                    6   7
  227                m_alltoallv_z                         0.035426                    6   7
  228                map_scatter                           0.029484                    6   7
  229        ggaall_grid                           0.069798                            1   3
  230        m_sumb_d                              0.000044                            5   3
  231        forhar                                0.104020                            2   3
  232          m_sumb_d                              0.002471                          2   4
  233        strehar                               0.006292                            1   3
  234          m_sumb_d                              0.000185                          1   4
  235        chggra                                0.049735                            1   3
  236          fft3d_mpi                             0.044813                          3   4
  237            fftbrc_mpi                            0.043280                        3   5
  238              fftbas_plan_mpi                       0.043278                      3   6
  239                map_forward                           0.018952                    4   7
  240                  map_gather                            0.000012                  2   8
  241                  m_alltoallv_z                         0.018918                  2   8
  242                  map_scatter                           0.000008                  2   8
  243                map_backward                          0.000040                    2   7
  244                  map_gather                            0.000004                  1   8
  245                  m_alltoallv_z                         0.000023                  1   8
  246                  map_scatter                           0.000004                  1   8
  247          m_sumb_d                              0.000021                          2   4
  248          pothar                                0.000551                          1   4
  249            m_sumb_d                              0.000017                        1   5
  250        brmix                                 0.095989                            1   3
  251          m_sumb_d                              0.000044                          6   4
  252          brpre                                 0.000298                          1   4
  253          setg0                                 0.012410                          1   4
  254          broyd                                 0.078473                          1   4
  255            m_sumb_d                              0.005811                       51   5
  256            brget                                 0.005139                      229   5
  257            brsav                                 0.003749                       49   5
  258        m_bcast_d                             0.000054                            2   3
  259      potlok                                0.513721                              1   2
  260        fft3d_mpi                             0.235201                           13   3
  261          fftbrc_mpi                            0.200920                         13   4
  262            fftbas_plan_mpi                       0.200900                       13   5
  263              dfftw_execute                         0.051581                     39   6
  264              map_forward                           0.068106                     14   6
  265                map_gather                            0.021595                    8   7
  266                m_alltoallv_z                         0.033573                    8   7
  267                map_scatter                           0.012876                    8   7
  268              map_backward                          0.079911                     12   6
  269                map_gather                            0.012970                    6   7
  270                m_alltoallv_z                         0.039179                    6   7
  271                map_scatter                           0.027704                    6   7
  272        ggaall_grid                           0.069713                            1   3
  273        m_sumb_d                              0.000067                            5   3
  274        pothar                                0.016207                            1   3
  275          m_sumb_d                              0.004600                          1   4
  276        m_bcast_d                             0.003768                            1   3
  277      potlok_metagga                        0.000001                              1   2
  278      set_dd_magatom                        0.000005                              1   2
  279      set_dd_paw                            4.901296                              1   2
  280        m_sumb_d                              0.183942                            7   3
  281      densta                                0.012579                              1   2
  282        m_sumb_d                              0.000225                           41   3
 
 Flat profile
 ============
 
             routine name                   CPU           calls
 ---------------------------------------------------------------
 eddav                                7434.136130         149
 m_sumb_d                             3342.089878     2898007
 rpromu_acc                           1179.075482      748673
 lapack                                969.882927      959573
 set_dd_paw                            701.071353         147
 hamiltmu                              613.533361      959573
 racc0mu_acc                           610.064491      959573
 newband                               313.566027      962553
 m_alltoall_d                          186.882804    13783868
 raccmu_                               158.535254      959573
 orth1                                 112.188314     2878739
 phaser                                109.974890        3240
 overl_mu                               90.055903      959573
 fft3d                                  85.711318     5738408
 w1_copy                                61.601325     5713332
 redis_pw                               57.889599     5281272
 ggemm                                  49.180429     1180093
 total_time                             41.729162           1
 redis_proj                             34.536710     6747676
 fftwav                                 28.164326     3833964
 lincom                                 27.775955        3000
 potlok                                 27.182604         146
 overl                                  26.342200     3370848
 m_bcast_z                              23.607289      971333
 setdij_                                12.114614         173
 m_alltoallv_z                          11.691320        2494
 augmentation_charge                    11.610142         145
 ggaall_grid                            10.335999         147
 m_bcast_d                               9.556898     1919297
 eccp                                    9.261623      438060
 kinhamil                                8.752331     1904444
 fftext_mpi                              8.723174     1904444
 dfftw_execute                           7.959302        6600
 map_scatter                             7.667223        2494
 fft3d_mpi                               7.397251     1906647
 vhamil                                  7.070192     1904444
 broyd                                   6.633706         145
 depsum                                  6.598998         145
 fftwav_mpi                              6.538988     3833964
 apply_precond                           6.387220     1466384
 map_gather                              5.456798        2494
 setup_precond                           3.129740      438060
 rspher_all                              2.052201          14
 densta                                  1.824051         150
 orthch                                  1.748826           1
 setg0                                   1.746477         146
 pothar                                  1.692104         147
 elmin                                   1.607546           1
 soft_charge                             1.171617         145
 brmix                                   1.011243         145
 pw_charge                               0.812090      424916
 w1_projall                              0.789456      739053
 brget                                   0.659724       29589
 brsav                                   0.630610        8283
 fftbas_plan_mpi                         0.601269        2203
 proall                                  0.454872           1
 choleski                                0.428607          20
 set_charge                              0.391425         145
 force_and_stress                        0.389886           1
 truncate_high_frequency_w1              0.383163     2342504
 init_hip                                0.352918           1
 rpro_isp                                0.189997         260
 strkin                                  0.184329           1
 strnlr                                  0.135877           1
 stufak                                  0.102391           1
 forhar                                  0.101549           2
 fft_gq                                  0.085516         145
 forloc                                  0.051543           1
 brpre                                   0.044194         145
 fornlr                                  0.035426           1
 inisym                                  0.011856           1
 map_backward                            0.010415        2346
 map_forward                             0.008908        2060
 strelo                                  0.007452           1
 strehar                                 0.006107           1
 rsp                                     0.004879           1
 chggra                                  0.004350           1
 hip_hipfft_makeplan                     0.003328           6
 fftbrc_mpi                              0.003210        2203
 brgrid                                  0.002697           1
 fewald                                  0.001556           1
 set_dd_magatom                          0.001044         147
 vectorpot                               0.000947         146
 rcp                                     0.000375           1
 fordep                                  0.000180           1
 hip_init_hipblas                        0.000172           1
 potlok_metagga                          0.000127         146
 crpa_reader                             0.000056           1
 hip_init_rocsolver                      0.000056           1
 posmap                                  0.000015           2
 rotate_active_occupied_orbital          0.000007           1
 hip_hipfft_makeplans                    0.000001           3
 redis_pw_over_bands                     0.000000           1
 ---------------------------------------------------------------
  summed up times    16451.4098958969     
 
 Accumulative profile
 ====================
 
             routine name                   CPU           calls
 ---------------------------------------------------------------
 total_time                          16451.409896           1
 elmin                               16326.067020           1
 eddav                               15305.596645         149
 m_sumb_d                             3342.089878     2898007
 hamiltmu                             1524.337418      959573
 rpromu_acc                           1179.075482      748673
 w1_projall                           1140.048420      739053
 lapack                                969.882927      959573
 raccmu_                               858.655648      959573
 set_dd_paw                            746.170010         147
 racc0mu_acc                           610.064491      959573
 newband                               364.701653      962553
 m_alltoall_d                          186.882804    13783868
 set_charge                            186.374350         145
 soft_charge                           164.557789         145
 redis_pw                              152.677981     5281272
 redis_proj                            126.631133     6747676
 orth1                                 112.188314     2878739
 phaser                                109.974890        3240
 fftwav_mpi                             93.964002     3833964
 overl_mu                               90.055903      959573
 fftwav                                 87.425014     3833964
 fft3d                                  85.711318     5738408
 potlok                                 74.379560         146
 fft3d_mpi                              67.246327     1906647
 w1_copy                                61.601325     5713332
 force_and_stress                       57.133388           1
 ggemm                                  49.180429     1180093
 kinhamil                               45.078217     1904444
 rpro_isp                               40.928405         260
 fftext_mpi                             36.325886     1904444
 strnlr                                 35.924279           1
 fftbrc_mpi                             33.398445        2203
 fftbas_plan_mpi                        33.395235        2203
 lincom                                 27.775955        3000
 overl                                  26.342200     3370848
 m_bcast_z                              23.607289      971333
 map_backward                           14.625758        2346
 augmentation_charge                    14.552603         145
 setdij_                                12.258277         173
 fornlr                                 11.952199           1
 m_alltoallv_z                          11.691320        2494
 brmix                                  11.532220         145
 ggaall_grid                            10.335999         147
 map_forward                            10.208905        2060
 m_bcast_d                               9.556898     1919297
 eccp                                    9.261623      438060
 broyd                                   8.672970         145
 dfftw_execute                           7.959302        6600
 map_scatter                             7.667223        2494
 vhamil                                  7.070192     1904444
 depsum                                  6.872532         145
 orthch                                  6.742134           1
 apply_precond                           6.387220     1466384
 map_gather                              5.456798        2494
 proall                                  4.347147           1
 setup_precond                           3.129740      438060
 fft_gq                                  2.234276         145
 rspher_all                              2.052201          14
 pothar                                  2.033357         147
 densta                                  1.856975         150
 setg0                                   1.746477         146
 pw_charge                               0.812090      424916
 brget                                   0.659724       29589
 brsav                                   0.630610        8283
 fordep                                  0.430895           1
 choleski                                0.428607          20
 truncate_high_frequency_w1              0.383163     2342504
 init_hip                                0.352918           1
 strkin                                  0.189626           1
 forhar                                  0.104020           2
 stufak                                  0.102391           1
 forloc                                  0.052473           1
 chggra                                  0.049735           1
 brpre                                   0.044194         145
 inisym                                  0.011871           1
 strelo                                  0.007502           1
 fewald                                  0.007104           1
 strehar                                 0.006292           1
 rsp                                     0.004879           1
 hip_hipfft_makeplans                    0.003329           3
 hip_hipfft_makeplan                     0.003328           6
 brgrid                                  0.002697           1
 set_dd_magatom                          0.001044         147
 vectorpot                               0.000947         146
 rcp                                     0.000375           1
 hip_init_hipblas                        0.000172           1
 potlok_metagga                          0.000127         146
 hip_init_rocsolver                      0.000056           1
 crpa_reader                             0.000056           1
 posmap                                  0.000015           2
 rotate_active_occupied_orbital          0.000007           1
 redis_pw_over_bands                     0.000000           1
 ---------------------------------------------------------------
 
Profiling took  20.377908  8.648933  0.002984  0.002782 seconds
Profiling took  11.793099 seconds
