使用/work/share/acm8fx9eqb/software/vasp6.3.2/dcu-port-2Feb2023/bin目录下的可执行文件,支持Wannier90 v3.1.0
 running on    4 total cores
 distrk:  each k-point on    4 cores,    1 groups
 distr:  one band on    1 cores,    4 groups
 HIP runtime initialized ...    4 DCUs will be used
 Created    4 streams on each DCU
 vasp.6.3.2 27Jun22 (build Feb 01 2023 14:57:41) complex                        
  
 POSCAR found type information on POSCAR TaCe
 POSCAR found :  2 types and      86 ions
 Reading from existing POTCAR
 scaLAPACK will be used selectively (only on CPU)
 Reading from existing POTCAR
 LDA part: xc-table for Pade appr. of Perdew
 -----------------------------------------------------------------------------
|                                                                             |
|           W    W    AA    RRRRR   N    N  II  N    N   GGGG   !!!           |
|           W    W   A  A   R    R  NN   N  II  NN   N  G    G  !!!           |
|           W    W  A    A  R    R  N N  N  II  N N  N  G       !!!           |
|           W WW W  AAAAAA  RRRRR   N  N N  II  N  N N  G  GGG   !            |
|           WW  WW  A    A  R   R   N   NN  II  N   NN  G    G                |
|           W    W  A    A  R    R  N    N  II  N    N   GGGG   !!!           |
|                                                                             |
|     The requested file  could not be found or opened for reading            |
|     k-point information. Automatic k-point generation is used as a          |
|     fallback, which may lead to unwanted results.                           |
|                                                                             |
 -----------------------------------------------------------------------------

 INCAR ok, starting setup
 POSCAR ok, starting setup
 FFT: planning ... GRIDC
 FFT: planning ... GRID_SOFT
 FFT: planning ... GRID
 WAVECAR not read
 entering main loop
       N       E                     dE             d eps       ncg     rms          rms(c)
DAV:   1     0.146728702845E+05    0.14673E+05   -0.41699E+05 23688   0.195E+03
DAV:   2     0.227363355147E+04   -0.12399E+05   -0.11893E+05 26384   0.542E+02
DAV:   3    -0.337100300493E+03   -0.26107E+04   -0.25238E+04 25360   0.254E+02
DAV:   4    -0.813498244736E+03   -0.47640E+03   -0.44508E+03 37432   0.913E+01
DAV:   5    -0.889484305586E+03   -0.75986E+02   -0.69843E+02 40624   0.307E+01    0.165E+02
DAV:   6    -0.214639723817E+04   -0.12569E+04   -0.25804E+04 33944   0.745E+02    0.118E+03
DAV:   7    -0.378910208806E+04   -0.16427E+04   -0.16066E+04 46296   0.285E+02    0.330E+02
DAV:   8    -0.190443169722E+04    0.18847E+04   -0.61428E+03 40180   0.207E+02    0.464E+02
DAV:   9    -0.164741893500E+04    0.25701E+03   -0.22449E+03 40400   0.134E+02    0.245E+02
DAV:  10    -0.123789497440E+04    0.40952E+03   -0.46570E+03 39056   0.126E+02    0.289E+02
DAV:  11    -0.113782758223E+04    0.10007E+03   -0.23233E+03 33016   0.186E+02    0.184E+02
DAV:  12    -0.104489260863E+04    0.92935E+02   -0.45215E+03 37872   0.141E+02    0.460E+02
DAV:  13    -0.102674380658E+04    0.18149E+02   -0.13235E+03 36664   0.867E+01    0.138E+02
DAV:  14    -0.981799689126E+03    0.44944E+02   -0.23500E+03 36492   0.106E+02    0.927E+01
DAV:  15    -0.968854878164E+03    0.12945E+02   -0.65794E+02 38752   0.474E+01    0.140E+02
DAV:  16    -0.916215384836E+03    0.52639E+02   -0.79352E+02 39168   0.728E+01    0.762E+01
DAV:  17    -0.882154071563E+03    0.34061E+02   -0.19215E+02 40640   0.189E+01    0.702E+01
DAV:  18    -0.918015531511E+03   -0.35861E+02   -0.27153E+02 39600   0.176E+01    0.174E+02
DAV:  19    -0.849646250293E+03    0.68369E+02   -0.60846E+02 44720   0.482E+01    0.107E+02
DAV:  20    -0.852540943739E+03   -0.28947E+01   -0.42335E+02 40976   0.339E+01    0.124E+02
DAV:  21    -0.873812030153E+03   -0.21271E+02   -0.33080E+02 42040   0.342E+01    0.121E+02
DAV:  22    -0.836019670268E+03    0.37792E+02   -0.49556E+02 40008   0.362E+01    0.106E+02
DAV:  23    -0.833160758445E+03    0.28589E+01   -0.27407E+02 43896   0.240E+01    0.107E+02
DAV:  24    -0.825039457221E+03    0.81213E+01   -0.38975E+02 43376   0.280E+01    0.589E+01
DAV:  25    -0.829397023168E+03   -0.43576E+01   -0.28572E+02 40056   0.229E+01    0.114E+02
DAV:  26    -0.825810728450E+03    0.35863E+01   -0.24425E+02 42040   0.240E+01    0.130E+02
DAV:  27    -0.817101054255E+03    0.87097E+01   -0.69971E+01 43424   0.135E+01    0.808E+01
DAV:  28    -0.816640528610E+03    0.46053E+00   -0.12739E+02 39672   0.166E+01    0.746E+01
DAV:  29    -0.827971202597E+03   -0.11331E+02   -0.95286E+01 39664   0.143E+01    0.124E+02
DAV:  30    -0.812022285015E+03    0.15949E+02   -0.56635E+01 42248   0.121E+01    0.852E+01
DAV:  31    -0.815608307083E+03   -0.35860E+01   -0.63288E+01 41808   0.116E+01    0.960E+01
DAV:  32    -0.824022007931E+03   -0.84137E+01   -0.55233E+01 42296   0.130E+01    0.115E+02
DAV:  33    -0.816661779359E+03    0.73602E+01   -0.35293E+01 41912   0.973E+00    0.128E+02
DAV:  34    -0.808872742678E+03    0.77890E+01   -0.14263E+01 43656   0.526E+00    0.999E+01
DAV:  35    -0.811011545670E+03   -0.21388E+01   -0.89956E+00 41184   0.455E+00    0.107E+02
DAV:  36    -0.812863972248E+03   -0.18524E+01   -0.57568E+00 43312   0.387E+00    0.116E+02
DAV:  37    -0.810437560778E+03    0.24264E+01   -0.15910E+01 41872   0.678E+00    0.119E+02
DAV:  38    -0.807227078549E+03    0.32105E+01   -0.47200E+00 38536   0.336E+00    0.105E+02
DAV:  39    -0.805725882162E+03    0.15012E+01   -0.30624E+00 44448   0.259E+00    0.984E+01
DAV:  40    -0.805074275161E+03    0.65161E+00   -0.98579E+00 37872   0.504E+00    0.838E+01
DAV:  41    -0.808668442301E+03   -0.35942E+01   -0.49395E+00 41384   0.251E+00    0.102E+02
DAV:  42    -0.813301075457E+03   -0.46326E+01   -0.55631E+00 43192   0.402E+00    0.106E+02
DAV:  43    -0.813973598538E+03   -0.67252E+00   -0.30919E+00 43152   0.238E+00    0.105E+02
DAV:  44    -0.818652360943E+03   -0.46788E+01   -0.68987E+00 39264   0.473E+00    0.109E+02
DAV:  45    -0.821622643279E+03   -0.29703E+01   -0.65935E+00 42784   0.294E+00    0.125E+02
DAV:  46    -0.829448841667E+03   -0.78262E+01   -0.82305E+00 39128   0.470E+00    0.130E+02
DAV:  47    -0.828728308646E+03    0.72053E+00   -0.40797E+00 38176   0.262E+00    0.129E+02
DAV:  48    -0.828229293769E+03    0.49901E+00   -0.31549E+00 44952   0.237E+00    0.128E+02
DAV:  49    -0.829670683240E+03   -0.14414E+01   -0.32285E+00 36848   0.284E+00    0.127E+02
DAV:  50    -0.829597782903E+03    0.72900E-01   -0.26045E+00 40120   0.179E+00    0.127E+02
DAV:  51    -0.865623283967E+03   -0.36026E+02   -0.69537E+01 40192   0.132E+01    0.174E+02
DAV:  52    -0.852770470213E+03    0.12853E+02   -0.78595E+01 38296   0.174E+01    0.160E+02
DAV:  53    -0.848459656565E+03    0.43108E+01   -0.91187E+01 37752   0.144E+01    0.141E+02
DAV:  54    -0.852305388239E+03   -0.38457E+01   -0.72177E+01 41104   0.109E+01    0.147E+02
DAV:  55    -0.847120893268E+03    0.51845E+01   -0.79643E+01 41032   0.136E+01    0.144E+02
DAV:  56    -0.825391979349E+03    0.21729E+02   -0.91671E+01 36800   0.167E+01    0.135E+02
DAV:  57    -0.819471466826E+03    0.59205E+01   -0.13329E+02 38592   0.174E+01    0.116E+02
DAV:  58    -0.831620495519E+03   -0.12149E+02   -0.48091E+01 39752   0.102E+01    0.145E+02
DAV:  59    -0.836333285724E+03   -0.47128E+01   -0.12966E+02 41448   0.166E+01    0.152E+02
DAV:  60    -0.828406016938E+03    0.79273E+01   -0.39137E+01 38432   0.146E+01    0.131E+02
DAV:  61    -0.879721731227E+03   -0.51316E+02   -0.34598E+02 42400   0.198E+01    0.194E+02
DAV:  62    -0.800491475884E+03    0.79230E+02   -0.56168E+02 39200   0.429E+01    0.138E+02
DAV:  63    -0.825406696863E+03   -0.24915E+02   -0.22209E+02 40944   0.146E+01    0.126E+02
DAV:  64    -0.831965959111E+03   -0.65593E+01   -0.67602E+01 38080   0.905E+00    0.136E+02
DAV:  65    -0.832627864578E+03   -0.66191E+00   -0.13439E+01 41392   0.601E+00    0.124E+02
DAV:  66    -0.848120658273E+03   -0.15493E+02   -0.11808E+02 41264   0.926E+00    0.160E+02
DAV:  67    -0.812407807165E+03    0.35713E+02   -0.34563E+02 40800   0.300E+01    0.115E+02
DAV:  68    -0.823882909623E+03   -0.11475E+02   -0.11195E+02 41360   0.921E+00    0.112E+02
DAV:  69    -0.826502789531E+03   -0.26199E+01   -0.32419E+01 41960   0.485E+00    0.113E+02
DAV:  70    -0.824591514797E+03    0.19113E+01   -0.47131E+00 44656   0.270E+00    0.109E+02
DAV:  71    -0.819804456023E+03    0.47871E+01   -0.22179E+01 38696   0.710E+00    0.106E+02
DAV:  72    -0.820570962790E+03   -0.76651E+00   -0.37441E+01 37712   0.889E+00    0.108E+02
DAV:  73    -0.818085743453E+03    0.24852E+01   -0.75875E+00 40040   0.375E+00    0.106E+02
DAV:  74    -0.816854818205E+03    0.12309E+01   -0.15693E+00 43776   0.192E+00    0.104E+02
DAV:  75    -0.815980278113E+03    0.87454E+00   -0.76046E-01 43680   0.121E+00    0.104E+02
DAV:  76    -0.819922584161E+03   -0.39423E+01   -0.79846E+01 42424   0.806E+00    0.141E+02
DAV:  77    -0.795473591028E+03    0.24449E+02   -0.26198E+02 40736   0.243E+01    0.103E+02
DAV:  78    -0.806590841379E+03   -0.11117E+02   -0.12477E+02 39144   0.938E+00    0.104E+02
DAV:  79    -0.804783130008E+03    0.18077E+01   -0.28009E+01 37464   0.550E+00    0.925E+01
DAV:  80    -0.801975850937E+03    0.28073E+01   -0.42894E+00 40816   0.277E+00    0.877E+01
DAV:  81    -0.807004231619E+03   -0.50284E+01   -0.68270E+01 40240   0.634E+00    0.111E+02
DAV:  82    -0.795792135481E+03    0.11212E+02   -0.16264E+02 41600   0.191E+01    0.846E+01
DAV:  83    -0.798506808319E+03   -0.27147E+01   -0.42567E+01 39352   0.547E+00    0.834E+01
DAV:  84    -0.797899024435E+03    0.60778E+00   -0.85893E+00 42216   0.322E+00    0.802E+01
DAV:  85    -0.797849401730E+03    0.49623E-01   -0.24585E+00 41648   0.241E+00    0.822E+01
DAV:  86    -0.996148023773E+03   -0.19830E+03   -0.18601E+03 40488   0.725E+01    0.261E+02
DAV:  87    -0.837965928442E+03    0.15818E+03   -0.52563E+02 35728   0.546E+01    0.149E+02
DAV:  88    -0.825261412802E+03    0.12705E+02   -0.66624E+02 38768   0.440E+01    0.109E+02
DAV:  89    -0.820824425404E+03    0.44370E+01   -0.33643E+02 39296   0.306E+01    0.109E+02
DAV:  90    -0.806315685844E+03    0.14509E+02   -0.32631E+02 40584   0.277E+01    0.640E+01
DAV:  91    -0.824728977770E+03   -0.18413E+02   -0.30276E+02 38968   0.194E+01    0.100E+02
DAV:  92    -0.795908714911E+03    0.28820E+02   -0.48582E+02 39176   0.399E+01    0.440E+01
DAV:  93    -0.798802041402E+03   -0.28933E+01   -0.85452E+01 39168   0.117E+01    0.275E+01
DAV:  94    -0.795395665481E+03    0.34064E+01   -0.12884E+01 39120   0.434E+00    0.258E+01
DAV:  95    -0.792771699376E+03    0.26240E+01   -0.71469E+00 39368   0.373E+00    0.400E+01
DAV:  96    -0.794314667965E+03   -0.15430E+01   -0.51148E+01 41448   0.823E+00    0.666E+01
DAV:  97    -0.790082579227E+03    0.42321E+01   -0.10829E+02 41896   0.125E+01    0.252E+01
DAV:  98    -0.790217829655E+03   -0.13525E+00   -0.21223E+01 40640   0.522E+00    0.298E+01
DAV:  99    -0.788679243423E+03    0.15386E+01   -0.54253E+00 40856   0.293E+00    0.213E+01
DAV: 100    -0.789486281530E+03   -0.80704E+00   -0.47540E+00 39712   0.293E+00    0.670E+01
DAV: 101    -0.806257031566E+03   -0.16771E+02   -0.73243E+01 41600   0.799E+00    0.120E+02
DAV: 102    -0.785888463798E+03    0.20369E+02   -0.78698E+01 43016   0.153E+01    0.301E+01
DAV: 103    -0.786047042567E+03   -0.15858E+00   -0.23032E+01 40760   0.451E+00    0.183E+01
DAV: 104    -0.785831053785E+03    0.21599E+00   -0.62217E+00 37768   0.289E+00    0.186E+01
DAV: 105    -0.784760606510E+03    0.10704E+01   -0.40112E+00 37888   0.249E+00    0.163E+01
DAV: 106    -0.786072220987E+03   -0.13116E+01   -0.10120E+01 39920   0.420E+00    0.335E+01
DAV: 107    -0.784322220802E+03    0.17500E+01   -0.16864E+01 40448   0.465E+00    0.179E+01
DAV: 108    -0.784121740226E+03    0.20048E+00   -0.28652E+00 42864   0.176E+00    0.148E+01
DAV: 109    -0.783934510446E+03    0.18723E+00   -0.15477E+00 37400   0.202E+00    0.182E+01
DAV: 110    -0.783660451466E+03    0.27406E+00   -0.10038E+00 41704   0.118E+00    0.140E+01
DAV: 111    -0.783770340241E+03   -0.10989E+00   -0.23237E+00 38768   0.199E+00    0.180E+01
DAV: 112    -0.783407076511E+03    0.36326E+00   -0.16789E+00 42264   0.148E+00    0.142E+01
DAV: 113    -0.783150779487E+03    0.25630E+00   -0.87054E-01 40016   0.117E+00    0.139E+01
DAV: 114    -0.782953240902E+03    0.19754E+00   -0.91031E-01 40680   0.109E+00    0.143E+01
DAV: 115    -0.782829316078E+03    0.12392E+00   -0.83100E-01 42896   0.105E+00    0.118E+01
DAV: 116    -0.782765394233E+03    0.63922E-01   -0.89614E-01 40992   0.113E+00    0.127E+01
DAV: 117    -0.782657896576E+03    0.10750E+00   -0.81113E-01 42928   0.105E+00    0.106E+01
DAV: 118    -0.782590336392E+03    0.67560E-01   -0.68434E-01 38320   0.103E+00    0.991E+00
DAV: 119    -0.782502121660E+03    0.88215E-01   -0.87941E-01 37128   0.114E+00    0.807E+00
DAV: 120    -0.782389674636E+03    0.11245E+00   -0.49455E-01 39744   0.872E-01    0.661E+00
DAV: 121    -0.782617714580E+03   -0.22804E+00   -0.90242E-01 36048   0.120E+00    0.218E+01
DAV: 122    -0.782353412003E+03    0.26430E+00   -0.18497E+00 37368   0.116E+00    0.586E+00
DAV: 123    -0.782310237869E+03    0.43174E-01   -0.35554E-01 40840   0.823E-01    0.561E+00
DAV: 124    -0.782267162600E+03    0.43075E-01   -0.26692E-01 40288   0.598E-01    0.470E+00
DAV: 125    -0.782248134524E+03    0.19028E-01   -0.19982E-01 38888   0.546E-01    0.462E+00
DAV: 126    -0.782304700644E+03   -0.56566E-01   -0.76596E-01 39312   0.102E+00    0.548E+00
DAV: 127    -0.782197296800E+03    0.10740E+00   -0.43495E-01 39344   0.880E-01    0.328E+00
DAV: 128    -0.782193455560E+03    0.38412E-02   -0.10800E-01 38872   0.389E-01    0.313E+00
DAV: 129    -0.782187143565E+03    0.63120E-02   -0.49623E-02 44248   0.291E-01    0.283E+00
DAV: 130    -0.782173316382E+03    0.13827E-01   -0.40156E-02 39704   0.281E-01    0.235E+00
DAV: 131    -0.782164736030E+03    0.85804E-02   -0.47164E-02 38552   0.267E-01    0.212E+00
DAV: 132    -0.782165572355E+03   -0.83632E-03   -0.55031E-02 39016   0.301E-01    0.231E+00
DAV: 133    -0.782160098529E+03    0.54738E-02   -0.27793E-02 40400   0.221E-01    0.195E+00
DAV: 134    -0.782153164489E+03    0.69340E-02   -0.23290E-02 40064   0.179E-01    0.151E+00
DAV: 135    -0.782150658895E+03    0.25056E-02   -0.12980E-02 41904   0.133E-01    0.133E+00
DAV: 136    -0.782149429335E+03    0.12296E-02   -0.18204E-02 39032   0.158E-01    0.130E+00
DAV: 137    -0.782148190305E+03    0.12390E-02   -0.83295E-03 39344   0.101E-01    0.125E+00
DAV: 138    -0.782146007834E+03    0.21825E-02   -0.31059E-03 40136   0.767E-02    0.103E+00
DAV: 139    -0.782143865498E+03    0.21423E-02   -0.37216E-03 38000   0.710E-02    0.734E-01
DAV: 140    -0.782142556616E+03    0.13089E-02   -0.28950E-03 38392   0.666E-02    0.534E-01
DAV: 141    -0.782141711991E+03    0.84462E-03   -0.58507E-03 35968   0.900E-02    0.323E-01
DAV: 142    -0.782141729720E+03   -0.17729E-04   -0.24952E-03 37328   0.705E-02    0.288E-01
DAV: 143    -0.782141566736E+03    0.16298E-03   -0.88920E-04 33280   0.400E-02    0.235E-01
DAV: 144    -0.782141520751E+03    0.45985E-04   -0.43825E-04 31136   0.307E-02    0.177E-01
DAV: 145    -0.782141436698E+03    0.84053E-04   -0.40252E-04 28416   0.273E-02    0.111E-01
DAV: 146    -0.782141497423E+03   -0.60724E-04   -0.11123E-03 32568   0.382E-02    0.159E-01
DAV: 147    -0.782141408879E+03    0.88543E-04   -0.54629E-04 28880   0.303E-02    0.814E-02
DAV: 148    -0.782141404027E+03    0.48520E-05   -0.15915E-04 24896   0.187E-02    0.654E-02
DAV: 149    -0.782141396851E+03    0.71761E-05   -0.86233E-05 22408   0.152E-02
   1 F= -.78214140E+03 E0= -.78216155E+03  d E =0.604651E-01
 PROFILE, used timers:     282
