<?xml version="1.0" encoding="ISO-8859-1"?>
<modeling>
 <generator>
  <i name="program" type="string">vasp </i>
  <i name="version" type="string">6.3.2  </i>
  <i name="subversion" type="string">27Jun22 (build Feb 01 2023 14:57:41) complex                          parallel </i>
  <i name="platform" type="string">LinuxIFC </i>
  <i name="date" type="string">2023 12 18 </i>
  <i name="time" type="string">23:54:16 </i>
 </generator>
 <incar>
  <i type="string" name="PREC">Accurate</i>
  <i type="string" name="ALGO">normal</i>
  <i type="int" name="NELM">   400</i>
  <i name="EDIFF">      0.00001000</i>
  <i type="int" name="NSW">     0</i>
  <i type="int" name="ISIF">     2</i>
  <i name="ENCUT">    520.00000000</i>
  <i type="string" name="LREAL">Auto</i>
  <i type="int" name="ISMEAR">     1</i>
  <i name="SIGMA">      0.10000000</i>
  <i name="KSPACING">      0.20000000</i>
  <i type="logical" name="LWAVE"> F  </i>
  <i type="logical" name="LCHARG"> F  </i>
  <i type="logical" name="LASPH"> T  </i>
 </incar>
 <primitive_cell>
  <structure name="primitive_cell" >
   <crystal>
    <varray name="basis" >
     <v>       9.97316200       0.15154800      -0.06938500 </v>
     <v>      -0.00168200      10.28915600       0.04718800 </v>
     <v>       0.05506500      -0.06835500      21.90153400 </v>
    </varray>
    <i name="volume">   2247.51255098 </i>
    <varray name="rec_basis" >
     <v>       0.10026708       0.00001755      -0.00025204 </v>
     <v>      -0.00147469       0.09718805       0.00030703 </v>
     <v>       0.00032083      -0.00020934       0.04565744 </v>
    </varray>
   </crystal>
   <varray name="positions" >
    <v>       0.08784623       0.03198740       0.49489191 </v>
    <v>       0.17545274       0.15610960       0.08972284 </v>
    <v>       0.01023956       0.00138427       0.16365644 </v>
    <v>       0.19927050       0.17824099       0.22692285 </v>
    <v>       0.02261553       0.03062008       0.29404131 </v>
    <v>       0.17176304       0.14501986       0.39115801 </v>
    <v>       0.01125523       0.36626934       0.01094378 </v>
    <v>       0.04171847       0.34225638       0.15939251 </v>
    <v>       0.04383836       0.35014018       0.31388441 </v>
    <v>       0.02405377       0.70325808       0.46468214 </v>
    <v>       0.18265180       0.54032318       0.07683212 </v>
    <v>       0.01798511       0.68643116       0.16612419 </v>
    <v>       0.19975794       0.51777881       0.23266937 </v>
    <v>       0.98970442       0.71166707       0.32462287 </v>
    <v>       0.18126889       0.53680059       0.38983640 </v>
    <v>       0.18112571       0.86907836       0.08105353 </v>
    <v>       0.17485313       0.83641630       0.23232601 </v>
    <v>       0.22778049       0.82764389       0.40419498 </v>
    <v>       0.33508538       0.99502681       0.00450636 </v>
    <v>       0.38221943       0.03464980       0.14793475 </v>
    <v>       0.35815467       0.02113645       0.32112206 </v>
    <v>       0.32167861       0.34253661       0.02011989 </v>
    <v>       0.36227078       0.31284052       0.14192716 </v>
    <v>       0.35412734       0.33195898       0.32753324 </v>
    <v>       0.34723832       0.70456938       0.00231946 </v>
    <v>       0.33841331       0.66970355       0.14536197 </v>
    <v>       0.35051094       0.69151733       0.30701061 </v>
    <v>       0.66432315       0.05939976       0.47720016 </v>
    <v>       0.56955413       0.17940714       0.04867677 </v>
    <v>       0.69260244       0.00793305       0.15681319 </v>
    <v>       0.51241641       0.18221142       0.25304036 </v>
    <v>       0.68090920       0.03216648       0.32763080 </v>
    <v>       0.51557339       0.19617183       0.39222980 </v>
    <v>       0.74848948       0.35100916       0.97861505 </v>
    <v>       0.66725532       0.35310261       0.15468465 </v>
    <v>       0.67292054       0.37560987       0.32196183 </v>
    <v>       0.73216289       0.66926652       0.47330631 </v>
    <v>       0.49495296       0.52384388       0.06847427 </v>
    <v>       0.67433578       0.68505984       0.15148080 </v>
    <v>       0.53277515       0.52346417       0.23200685 </v>
    <v>       0.70050529       0.66722793       0.30626139 </v>
    <v>       0.50970419       0.53869513       0.39671281 </v>
    <v>       0.53101417       0.87466161       0.07947360 </v>
    <v>       0.49733841       0.85928647       0.22029432 </v>
    <v>       0.56043932       0.84490640       0.40733744 </v>
    <v>       0.84122412       0.20949410       0.08362124 </v>
    <v>       0.84846741       0.19499002       0.24713734 </v>
    <v>       0.89497379       0.16189427       0.38560195 </v>
    <v>       0.85933175       0.53944730       0.08624489 </v>
    <v>       0.83534460       0.49669177       0.22996417 </v>
    <v>       0.84851833       0.51017983       0.39733426 </v>
    <v>       0.88594058       0.84869089       0.09897540 </v>
    <v>       0.82482304       0.84277802       0.23821553 </v>
    <v>       0.84215999       0.87811558       0.40280358 </v>
    <v>       0.74192622       0.65082383       0.97268173 </v>
    <v>       0.35796316       0.00513414       0.52483742 </v>
    <v>       0.10632719       0.83478683       0.60442704 </v>
    <v>       0.84832901       0.91639171       0.57250397 </v>
    <v>       0.35190720       0.66930689       0.52553988 </v>
    <v>       0.04723446       0.32148481       0.50408919 </v>
    <v>       0.64094428       0.37525569       0.50940302 </v>
    <v>       0.76206216       0.70902483       0.74819411 </v>
    <v>       0.29795876       0.32143337       0.47971065 </v>
    <v>       0.13617848       0.38793434       0.60426947 </v>
    <v>       0.70245898       0.53092304       0.61588768 </v>
    <v>       0.44591152       0.81437680       0.66957057 </v>
    <v>       0.65020766       0.10181008       0.63628373 </v>
    <v>       0.38875336       0.53487763       0.73775926 </v>
    <v>       0.57482563       0.83810762       0.54001651 </v>
    <v>       0.03674445       0.14902246       0.62714029 </v>
    <v>       0.37402576       0.21045569       0.68183381 </v>
    <v>       0.64180988       0.96758802       0.76170703 </v>
    <v>       0.00190698       0.40823311       0.74957436 </v>
    <v>       0.71939873       0.32722777       0.71639085 </v>
    <v>       0.96898679       0.14183496       0.76809007 </v>
    <v>       0.07526823       0.75404882       0.82005906 </v>
    <v>       0.51620073       0.76664065       0.89661175 </v>
    <v>       0.52157266       0.45186086       0.92484746 </v>
    <v>       0.37209762       0.10944372       0.83873580 </v>
    <v>       0.80503517       0.82332245       0.86063476 </v>
    <v>       0.14425092       0.08648361       0.93028721 </v>
    <v>       0.58489499       0.11789306       0.89976095 </v>
    <v>       0.90181143       0.33358075       0.87781837 </v>
    <v>       0.85381140       0.04750518       0.99919592 </v>
    <v>       0.06309521       0.70412259       0.96479254 </v>
    <v>       0.21092882       0.45337894       0.87766273 </v>
   </varray>
  </structure>
  <varray name="primitive_index" >
   <v type="int" >        1 </v>
   <v type="int" >        2 </v>
   <v type="int" >        3 </v>
   <v type="int" >        4 </v>
   <v type="int" >        5 </v>
   <v type="int" >        6 </v>
   <v type="int" >        7 </v>
   <v type="int" >        8 </v>
   <v type="int" >        9 </v>
   <v type="int" >       10 </v>
   <v type="int" >       11 </v>
   <v type="int" >       12 </v>
   <v type="int" >       13 </v>
   <v type="int" >       14 </v>
   <v type="int" >       15 </v>
   <v type="int" >       16 </v>
   <v type="int" >       17 </v>
   <v type="int" >       18 </v>
   <v type="int" >       19 </v>
   <v type="int" >       20 </v>
   <v type="int" >       21 </v>
   <v type="int" >       22 </v>
   <v type="int" >       23 </v>
   <v type="int" >       24 </v>
   <v type="int" >       25 </v>
   <v type="int" >       26 </v>
   <v type="int" >       27 </v>
   <v type="int" >       28 </v>
   <v type="int" >       29 </v>
   <v type="int" >       30 </v>
   <v type="int" >       31 </v>
   <v type="int" >       32 </v>
   <v type="int" >       33 </v>
   <v type="int" >       34 </v>
   <v type="int" >       35 </v>
   <v type="int" >       36 </v>
   <v type="int" >       37 </v>
   <v type="int" >       38 </v>
   <v type="int" >       39 </v>
   <v type="int" >       40 </v>
   <v type="int" >       41 </v>
   <v type="int" >       42 </v>
   <v type="int" >       43 </v>
   <v type="int" >       44 </v>
   <v type="int" >       45 </v>
   <v type="int" >       46 </v>
   <v type="int" >       47 </v>
   <v type="int" >       48 </v>
   <v type="int" >       49 </v>
   <v type="int" >       50 </v>
   <v type="int" >       51 </v>
   <v type="int" >       52 </v>
   <v type="int" >       53 </v>
   <v type="int" >       54 </v>
   <v type="int" >       55 </v>
   <v type="int" >       56 </v>
   <v type="int" >       57 </v>
   <v type="int" >       58 </v>
   <v type="int" >       59 </v>
   <v type="int" >       60 </v>
   <v type="int" >       61 </v>
   <v type="int" >       62 </v>
   <v type="int" >       63 </v>
   <v type="int" >       64 </v>
   <v type="int" >       65 </v>
   <v type="int" >       66 </v>
   <v type="int" >       67 </v>
   <v type="int" >       68 </v>
   <v type="int" >       69 </v>
   <v type="int" >       70 </v>
   <v type="int" >       71 </v>
   <v type="int" >       72 </v>
   <v type="int" >       73 </v>
   <v type="int" >       74 </v>
   <v type="int" >       75 </v>
   <v type="int" >       76 </v>
   <v type="int" >       77 </v>
   <v type="int" >       78 </v>
   <v type="int" >       79 </v>
   <v type="int" >       80 </v>
   <v type="int" >       81 </v>
   <v type="int" >       82 </v>
   <v type="int" >       83 </v>
   <v type="int" >       84 </v>
   <v type="int" >       85 </v>
   <v type="int" >       86 </v>
  </varray>
 </primitive_cell>
 <kpoints>
  <generation param="Gamma">
   <v type="int" name="divisions">       4        4        2 </v>
   <v name="usershift">      0.00000000       0.00000000       0.00000000 </v>
   <v name="genvec1">      0.25000000       0.00000000      -0.00000000 </v>
   <v name="genvec2">     -0.00000000       0.25000000      -0.00000000 </v>
   <v name="genvec3">      0.00000000       0.00000000       0.50000000 </v>
   <v name="shift">      0.00000000       0.00000000       0.00000000 </v>
  </generation>
  <varray name="kpointlist" >
   <v>       0.00000000       0.00000000       0.00000000 </v>
   <v>       0.25000000       0.00000000       0.00000000 </v>
   <v>       0.50000000       0.00000000      -0.00000000 </v>
   <v>      -0.00000000       0.25000000       0.00000000 </v>
   <v>       0.25000000       0.25000000      -0.00000000 </v>
   <v>       0.50000000       0.25000000       0.00000000 </v>
   <v>      -0.25000000       0.25000000      -0.00000000 </v>
   <v>      -0.00000000       0.50000000      -0.00000000 </v>
   <v>       0.25000000       0.50000000       0.00000000 </v>
   <v>       0.50000000       0.50000000      -0.00000000 </v>
   <v>      -0.00000000       0.00000000       0.50000000 </v>
   <v>       0.25000000      -0.00000000       0.50000000 </v>
   <v>       0.50000000       0.00000000       0.50000000 </v>
   <v>      -0.00000000       0.25000000       0.50000000 </v>
   <v>       0.25000000       0.25000000       0.50000000 </v>
   <v>       0.50000000       0.25000000       0.50000000 </v>
   <v>      -0.25000000       0.25000000       0.50000000 </v>
   <v>       0.00000000       0.50000000       0.50000000 </v>
   <v>       0.25000000       0.50000000       0.50000000 </v>
   <v>       0.50000000       0.50000000       0.50000000 </v>
  </varray>
  <varray name="weights" >
   <v>       0.03125000 </v>
   <v>       0.06250000 </v>
   <v>       0.03125000 </v>
   <v>       0.06250000 </v>
   <v>       0.06250000 </v>
   <v>       0.06250000 </v>
   <v>       0.06250000 </v>
   <v>       0.03125000 </v>
   <v>       0.06250000 </v>
   <v>       0.03125000 </v>
   <v>       0.03125000 </v>
   <v>       0.06250000 </v>
   <v>       0.03125000 </v>
   <v>       0.06250000 </v>
   <v>       0.06250000 </v>
   <v>       0.06250000 </v>
   <v>       0.06250000 </v>
   <v>       0.03125000 </v>
   <v>       0.06250000 </v>
   <v>       0.03125000 </v>
  </varray>
 </kpoints>
 <parameters>
  <separator name="general" >
   <i type="string" name="SYSTEM">unknown system</i>
   <i type="logical" name="LCOMPAT"> F  </i>
  </separator>
  <separator name="electronic" >
   <i type="string" name="PREC">accura</i>
   <i name="ENMAX">    520.00000000</i>
   <i name="ENAUG">    580.19600000</i>
   <i name="EDIFF">      0.00001000</i>
   <i type="int" name="IALGO">    38</i>
   <i type="int" name="IWAVPR">    10</i>
   <i type="int" name="NBANDS">   588</i>
   <i type="int" name="NBANDSLOW">    -1</i>
   <i type="int" name="NBANDSHIGH">    -1</i>
   <i name="NELECT">    978.00000000</i>
   <i type="int" name="TURBO">     0</i>
   <i type="int" name="IRESTART">     0</i>
   <i type="int" name="NREBOOT">     0</i>
   <i type="int" name="NMIN">     0</i>
   <i name="EREF">      0.00000000</i>
   <separator name="electronic smearing" >
    <i type="int" name="ISMEAR">     1</i>
    <i name="SIGMA">      0.10000000</i>
    <i name="KSPACING">      0.20000000</i>
    <i type="logical" name="KGAMMA"> T  </i>
    <i type="logical" name="KBLOWUP"> T  </i>
   </separator>
   <separator name="electronic projectors" >
    <i type="logical" name="LREAL"> T  </i>
    <v name="ROPT">     -0.00025000     -0.00025000</v>
    <i type="int" name="LMAXPAW">  -100</i>
    <i type="int" name="LMAXMIX">     2</i>
    <i type="logical" name="NLSPLINE"> F  </i>
   </separator>
   <separator name="electronic startup" >
    <i type="int" name="ISTART">     0</i>
    <i type="int" name="ICHARG">     2</i>
    <i type="int" name="INIWAV">     1</i>
   </separator>
   <separator name="electronic spin" >
    <i type="int" name="ISPIN">     1</i>
    <i type="logical" name="LNONCOLLINEAR"> F  </i>
    <v name="MAGMOM">      1.00000000      1.00000000      1.00000000      1.00000000      1.00000000      1.00000000      1.00000000      1.00000000      1.00000000      1.00000000      1.00000000      1.00000000      1.00000000      1.00000000      1.00000000      1.00000000      1.00000000      1.00000000      1.00000000      1.00000000
      1.00000000      1.00000000      1.00000000      1.00000000      1.00000000      1.00000000      1.00000000      1.00000000      1.00000000      1.00000000      1.00000000      1.00000000      1.00000000      1.00000000      1.00000000      1.00000000      1.00000000      1.00000000      1.00000000      1.00000000
      1.00000000      1.00000000      1.00000000      1.00000000      1.00000000      1.00000000      1.00000000      1.00000000      1.00000000      1.00000000      1.00000000      1.00000000      1.00000000      1.00000000      1.00000000      1.00000000      1.00000000      1.00000000      1.00000000      1.00000000
      1.00000000      1.00000000      1.00000000      1.00000000      1.00000000      1.00000000      1.00000000      1.00000000      1.00000000      1.00000000      1.00000000      1.00000000      1.00000000      1.00000000      1.00000000      1.00000000      1.00000000      1.00000000      1.00000000      1.00000000
      1.00000000      1.00000000      1.00000000      1.00000000      1.00000000      1.00000000</v>
    <i name="NUPDOWN">     -1.00000000</i>
    <i type="logical" name="LSORBIT"> F  </i>
    <v name="SAXIS">      0.00000000      0.00000000      1.00000000</v>
    <i type="logical" name="LSPIRAL"> F  </i>
    <v name="QSPIRAL">      0.00000000      0.00000000      0.00000000</v>
    <i type="logical" name="LZEROZ"> F  </i>
   </separator>
   <separator name="electronic exchange-correlation" >
    <i type="logical" name="LASPH"> T  </i>
    <i type="logical" name="LMETAGGA"> F  </i>
   </separator>
   <separator name="electronic convergence" >
    <i type="int" name="NELM">   400</i>
    <i type="int" name="NELMDL">    -5</i>
    <i type="int" name="NELMIN">     2</i>
    <i name="ENINI">    520.00000000</i>
    <separator name="electronic convergence detail" >
     <i type="logical" name="LDIAG"> T  </i>
     <i type="logical" name="LSUBROT"> F  </i>
     <i name="WEIMIN">      0.00000000</i>
     <i name="EBREAK">      0.00000000</i>
     <i name="DEPER">      0.30000000</i>
     <i type="int" name="NRMM">     4</i>
     <i name="TIME">      0.40000000</i>
    </separator>
   </separator>
   <separator name="electronic mixer" >
    <i name="AMIX">      0.40000000</i>
    <i name="BMIX">      1.00000000</i>
    <i name="AMIN">      0.10000000</i>
    <i name="AMIX_MAG">      1.60000000</i>
    <i name="BMIX_MAG">      1.00000000</i>
    <separator name="electronic mixer details" >
     <i type="int" name="IMIX">     4</i>
     <i type="logical" name="MIXFIRST"> F  </i>
     <i type="int" name="MAXMIX">   -45</i>
     <i name="WC">    100.00000000</i>
     <i type="int" name="INIMIX">     1</i>
     <i type="int" name="MIXPRE">     1</i>
     <i type="int" name="MREMOVE">     5</i>
    </separator>
   </separator>
   <separator name="electronic dipolcorrection" >
    <i type="logical" name="LDIPOL"> F  </i>
    <i type="logical" name="LMONO"> F  </i>
    <i type="int" name="IDIPOL">     0</i>
    <i name="EPSILON">      1.00000000</i>
    <v name="DIPOL">   -100.00000000   -100.00000000   -100.00000000</v>
    <i name="EFIELD">      0.00000000</i>
   </separator>
  </separator>
  <separator name="grids" >
   <i type="int" name="NGX">    80</i>
   <i type="int" name="NGY">    80</i>
   <i type="int" name="NGZ">   168</i>
   <i type="int" name="NGXF">   160</i>
   <i type="int" name="NGYF">   160</i>
   <i type="int" name="NGZF">   336</i>
   <i type="logical" name="ADDGRID"> F  </i>
  </separator>
  <separator name="ionic" >
   <i type="int" name="NSW">     0</i>
   <i type="int" name="IBRION">    -1</i>
   <i type="int" name="MDALGO">     0</i>
   <i type="int" name="ISIF">     2</i>
   <i name="PSTRESS">      0.00000000</i>
   <i name="EDIFFG">      0.00010000</i>
   <i type="int" name="NFREE">     0</i>
   <i name="POTIM">      0.50000000</i>
   <i name="SMASS">     -3.00000000</i>
   <i name="SCALEE">      1.00000000</i>
  </separator>
  <separator name="ionic md" >
   <i name="TEBEG">      0.00010000</i>
   <i name="TEEND">      0.00010000</i>
   <i type="int" name="NBLOCK">     1</i>
   <i type="int" name="KBLOCK">     1</i>
   <i type="int" name="NPACO">   256</i>
   <i name="APACO">     10.00000000</i>
  </separator>
  <separator name="symmetry" >
   <i type="int" name="ISYM">     2</i>
   <i name="SYMPREC">      0.00001000</i>
  </separator>
  <separator name="dos" >
   <i type="int" name="LORBIT">     0</i>
   <v name="RWIGS">     -1.00000000     -1.00000000</v>
   <i type="int" name="NEDOS">   301</i>
   <i name="EMIN">     10.00000000</i>
   <i name="EMAX">    -10.00000000</i>
   <i name="EFERMI">      0.00000000</i>
  </separator>
  <separator name="writing" >
   <i type="int" name="NWRITE">     2</i>
   <i type="logical" name="LWAVE"> F  </i>
   <i type="logical" name="LDOWNSAMPLE"> F  </i>
   <i type="logical" name="LCHARG"> F  </i>
   <i type="logical" name="LPARD"> F  </i>
   <i type="logical" name="LVTOT"> F  </i>
   <i type="logical" name="LVHAR"> F  </i>
   <i type="logical" name="LELF"> F  </i>
   <i type="logical" name="LOPTICS"> F  </i>
   <v name="STM">      0.00000000      0.00000000      0.00000000      0.00000000      0.00000000      0.00000000      0.00000000</v>
  </separator>
  <separator name="performance" >
   <i type="int" name="NPAR">     4</i>
   <i type="int" name="NSIM">     4</i>
   <i type="int" name="NBLK">    -1</i>
   <i type="logical" name="LPLANE"> T  </i>
   <i type="logical" name="LSCALAPACK"> T  </i>
   <i type="logical" name="LSCAAWARE"> F  </i>
   <i type="logical" name="LSCALU"> F  </i>
   <i type="logical" name="LASYNC"> F  </i>
   <i type="logical" name="LORBITALREAL"> F  </i>
  </separator>
  <separator name="miscellaneous" >
   <i type="int" name="IDIOT">     3</i>
   <i type="int" name="PHON_NSTRUCT">    -1</i>
   <i type="logical" name="LMUSIC"> F  </i>
   <v name="POMASS">    180.94800000    140.11500000</v>
   <v name="DARWINR">      0.00000000      0.00000000</v>
   <v name="DARWINV">      1.00000000      1.00000000</v>
   <i type="logical" name="LCORR"> T  </i>
  </separator>
  <i type="logical" name="GGA_COMPAT"> T  </i>
  <i type="logical" name="LBERRY"> F  </i>
  <i type="int" name="ICORELEVEL">     0</i>
  <i type="logical" name="LDAU"> F  </i>
  <i type="int" name="I_CONSTRAINED_M">     0</i>
  <separator name="electronic exchange-correlation" >
   <i type="string" name="GGA">--</i>
   <i type="int" name="VOSKOWN">     0</i>
   <i type="logical" name="LHFCALC"> F  </i>
   <i type="string" name="PRECFOCK"></i>
   <i type="logical" name="LSYMGRAD"> F  </i>
   <i type="logical" name="LHFONE"> F  </i>
   <i type="logical" name="LRHFCALC"> F  </i>
   <i type="logical" name="LTHOMAS"> F  </i>
   <i type="logical" name="LMODELHF"> F  </i>
   <i type="logical" name="LFOCKACE"> F  </i>
   <i name="ENCUT4O">     -1.00000000</i>
   <i type="int" name="EXXOEP">     0</i>
   <i type="int" name="FOURORBIT">     0</i>
   <i name="AEXX">      0.00000000</i>
   <i name="HFALPHA">      0.00000000</i>
   <i name="MCALPHA">      0.00000000</i>
   <i name="ALDAX">      1.00000000</i>
   <i name="AGGAX">      1.00000000</i>
   <i name="ALDAC">      1.00000000</i>
   <i name="AGGAC">      1.00000000</i>
   <i type="int" name="NKREDX">     1</i>
   <i type="int" name="NKREDY">     1</i>
   <i type="int" name="NKREDZ">     1</i>
   <i type="logical" name="SHIFTRED"> F  </i>
   <i type="logical" name="ODDONLY"> F  </i>
   <i type="logical" name="EVENONLY"> F  </i>
   <i type="int" name="LMAXFOCK">     0</i>
   <i type="int" name="NMAXFOCKAE">     0</i>
   <i type="logical" name="LFOCKAEDFT"> F  </i>
   <i name="HFSCREEN">      0.00000000</i>
   <i name="HFSCREENC">      0.00000000</i>
   <i type="int" name="NBANDSGWLOW">     0</i>
  </separator>
  <separator name="vdW DFT" >
   <i type="logical" name="LUSE_VDW"> F  </i>
   <i name="Zab_VDW">     -0.84910000</i>
   <i name="PARAM1">      0.12340000</i>
   <i name="PARAM2">      1.00000000</i>
   <i name="PARAM3">      0.00000000</i>
  </separator>
  <separator name="model GW" >
   <i type="int" name="MODEL_GW">     0</i>
   <i name="MODEL_EPS0">     15.68032012</i>
   <i name="MODEL_ALPHA">      1.00000000</i>
  </separator>
  <separator name="linear response parameters" >
   <i type="logical" name="LEPSILON"> F  </i>
   <i type="logical" name="LRPA"> F  </i>
   <i type="logical" name="LNABLA"> F  </i>
   <i type="logical" name="LVEL"> F  </i>
   <i name="CSHIFT">      0.10000000</i>
   <i name="OMEGAMAX">     -1.00000000</i>
   <i name="DEG_THRESHOLD">      0.00200000</i>
   <i name="RTIME">     -0.10000000</i>
   <i name="WPLASMAI">      0.00000000</i>
   <v name="DFIELD">      0.00000000      0.00000000      0.00000000</v>
   <v name="WPLASMA">      0.00000000      0.00000000      0.00000000      0.00000000      0.00000000      0.00000000      0.00000000      0.00000000      0.00000000</v>
  </separator>
  <separator name="orbital magnetization" >
   <i type="logical" name="NUCIND"> F  </i>
   <v name="MAGPOS">      0.00000000      0.00000000      0.00000000</v>
   <i type="logical" name="LNICSALL"> T  </i>
   <i type="logical" name="ORBITALMAG"> F  </i>
   <i type="logical" name="LMAGBLOCH"> F  </i>
   <i type="logical" name="LCHIMAG"> F  </i>
   <i type="logical" name="LGAUGE"> T  </i>
   <i type="int" name="MAGATOM">     0</i>
   <v name="MAGDIPOL">      0.00000000      0.00000000      0.00000000</v>
   <v name="AVECCONST">      0.00000000      0.00000000      0.00000000</v>
  </separator>
  <separator name="response functions" >
   <i type="logical" name="LFINITE_TEMPERATURE"> F  </i>
   <i type="logical" name="LADDER"> F  </i>
   <i type="logical" name="LRPAFORCE"> F  </i>
   <i type="logical" name="LFXC"> F  </i>
   <i type="logical" name="LHARTREE"> T  </i>
   <i type="int" name="IBSE">     0</i>
   <v type="int" name="KPOINT">    -1     0     0     0</v>
   <i type="logical" name="LTCTC"> F  </i>
   <i type="logical" name="LTCTE"> F  </i>
   <i type="logical" name="LTETE"> F  </i>
   <i type="logical" name="LTRIPLET"> F  </i>
   <i type="logical" name="LFXCEPS"> F  </i>
   <i type="logical" name="LFXHEG"> F  </i>
   <i type="int" name="NATURALO">     2</i>
   <i type="logical" name="LHOLEGF"> F  </i>
   <i type="logical" name="L2ORDER"> F  </i>
   <i type="logical" name="LDMP1"> F  </i>
   <i type="logical" name="LMP2LT"> F  </i>
   <i type="logical" name="LSMP2LT"> F  </i>
   <i type="logical" name="LGWLF"> F  </i>
   <i name="ENCUTGW">     -2.00000000</i>
   <i name="ENCUTGWSOFT">     -2.00000000</i>
   <i name="ENCUTLF">     -1.00000000</i>
   <i type="logical" name="LESF_SPLINES"> F  </i>
   <i type="int" name="LMAXMP2">    -1</i>
   <i name="SCISSOR">      0.00000000</i>
   <i type="int" name="NOMEGA">     0</i>
   <i type="int" name="NOMEGAR">     0</i>
   <i type="int" name="NBANDSGW">    -1</i>
   <i type="int" name="NBANDSO">    -1</i>
   <i type="int" name="NBANDSV">    -1</i>
   <i type="int" name="NELMGW">     1</i>
   <i type="int" name="NELMHF">     1</i>
   <i type="int" name="DIM">     3</i>
   <i type="int" name="IESPILON">     4</i>
   <i type="int" name="ANTIRES">     0</i>
   <i name="OMEGAMAX">    -30.00000000</i>
   <i name="OMEGAMIN">    -30.00000000</i>
   <i name="OMEGATL">   -200.00000000</i>
   <i type="int" name="OMEGAGRID">     0</i>
   <i name="CSHIFT">     -0.10000000</i>
   <i type="logical" name="LSELFENERGY"> F  </i>
   <i type="logical" name="LSPECTRAL"> F  </i>
   <i type="logical" name="LSPECTRALGW"> F  </i>
   <i type="logical" name="LSINGLES"> F  </i>
   <i type="logical" name="LFERMIGW"> F  </i>
   <i type="logical" name="ODDONLYGW"> F  </i>
   <i type="logical" name="EVENONLYGW"> F  </i>
   <i type="int" name="NKREDLFX">     1</i>
   <i type="int" name="NKREDLFY">     1</i>
   <i type="int" name="NKREDLFZ">     1</i>
   <i type="int" name="MAXMEM">  2800</i>
   <i type="int" name="TELESCOPE">     0</i>
   <i type="int" name="NTAUPAR">    -1</i>
   <i type="int" name="NOMEGAPAR">    -1</i>
   <i name="DAMP_NEWTON">      0.80000001</i>
   <i name="LAMBDA">      1.00000000</i>
  </separator>
  <separator name="External order field" >
   <i name="OFIELD_KAPPA">      0.00000000</i>
   <v name="OFIELD_K">      0.00000000      0.00000000      0.00000000</v>
   <i name="OFIELD_Q6_NEAR">      0.00000000</i>
   <i name="OFIELD_Q6_FAR">      0.00000000</i>
   <i name="OFIELD_A">      0.00000000</i>
  </separator>
  <separator name="optional k-points parameters" >
   <i type="int" name="KPOINTS_OPT_MODE">     1</i>
   <i type="logical" name="LKPOINTS_OPT"> F  </i>
  </separator>
 </parameters>
 <atominfo>
  <atoms>      86 </atoms>
  <types>       2 </types>
  <array name="atoms" >
   <dimension dim="1">ion</dimension>
   <field type="string">element</field>
   <field type="int">atomtype</field>
   <set>
    <rc><c>Ta</c><c>   1</c></rc>
    <rc><c>Ta</c><c>   1</c></rc>
    <rc><c>Ta</c><c>   1</c></rc>
    <rc><c>Ta</c><c>   1</c></rc>
    <rc><c>Ta</c><c>   1</c></rc>
    <rc><c>Ta</c><c>   1</c></rc>
    <rc><c>Ta</c><c>   1</c></rc>
    <rc><c>Ta</c><c>   1</c></rc>
    <rc><c>Ta</c><c>   1</c></rc>
    <rc><c>Ta</c><c>   1</c></rc>
    <rc><c>Ta</c><c>   1</c></rc>
    <rc><c>Ta</c><c>   1</c></rc>
    <rc><c>Ta</c><c>   1</c></rc>
    <rc><c>Ta</c><c>   1</c></rc>
    <rc><c>Ta</c><c>   1</c></rc>
    <rc><c>Ta</c><c>   1</c></rc>
    <rc><c>Ta</c><c>   1</c></rc>
    <rc><c>Ta</c><c>   1</c></rc>
    <rc><c>Ta</c><c>   1</c></rc>
    <rc><c>Ta</c><c>   1</c></rc>
    <rc><c>Ta</c><c>   1</c></rc>
    <rc><c>Ta</c><c>   1</c></rc>
    <rc><c>Ta</c><c>   1</c></rc>
    <rc><c>Ta</c><c>   1</c></rc>
    <rc><c>Ta</c><c>   1</c></rc>
    <rc><c>Ta</c><c>   1</c></rc>
    <rc><c>Ta</c><c>   1</c></rc>
    <rc><c>Ta</c><c>   1</c></rc>
    <rc><c>Ta</c><c>   1</c></rc>
    <rc><c>Ta</c><c>   1</c></rc>
    <rc><c>Ta</c><c>   1</c></rc>
    <rc><c>Ta</c><c>   1</c></rc>
    <rc><c>Ta</c><c>   1</c></rc>
    <rc><c>Ta</c><c>   1</c></rc>
    <rc><c>Ta</c><c>   1</c></rc>
    <rc><c>Ta</c><c>   1</c></rc>
    <rc><c>Ta</c><c>   1</c></rc>
    <rc><c>Ta</c><c>   1</c></rc>
    <rc><c>Ta</c><c>   1</c></rc>
    <rc><c>Ta</c><c>   1</c></rc>
    <rc><c>Ta</c><c>   1</c></rc>
    <rc><c>Ta</c><c>   1</c></rc>
    <rc><c>Ta</c><c>   1</c></rc>
    <rc><c>Ta</c><c>   1</c></rc>
    <rc><c>Ta</c><c>   1</c></rc>
    <rc><c>Ta</c><c>   1</c></rc>
    <rc><c>Ta</c><c>   1</c></rc>
    <rc><c>Ta</c><c>   1</c></rc>
    <rc><c>Ta</c><c>   1</c></rc>
    <rc><c>Ta</c><c>   1</c></rc>
    <rc><c>Ta</c><c>   1</c></rc>
    <rc><c>Ta</c><c>   1</c></rc>
    <rc><c>Ta</c><c>   1</c></rc>
    <rc><c>Ta</c><c>   1</c></rc>
    <rc><c>Ce</c><c>   2</c></rc>
    <rc><c>Ce</c><c>   2</c></rc>
    <rc><c>Ce</c><c>   2</c></rc>
    <rc><c>Ce</c><c>   2</c></rc>
    <rc><c>Ce</c><c>   2</c></rc>
    <rc><c>Ce</c><c>   2</c></rc>
    <rc><c>Ce</c><c>   2</c></rc>
    <rc><c>Ce</c><c>   2</c></rc>
    <rc><c>Ce</c><c>   2</c></rc>
    <rc><c>Ce</c><c>   2</c></rc>
    <rc><c>Ce</c><c>   2</c></rc>
    <rc><c>Ce</c><c>   2</c></rc>
    <rc><c>Ce</c><c>   2</c></rc>
    <rc><c>Ce</c><c>   2</c></rc>
    <rc><c>Ce</c><c>   2</c></rc>
    <rc><c>Ce</c><c>   2</c></rc>
    <rc><c>Ce</c><c>   2</c></rc>
    <rc><c>Ce</c><c>   2</c></rc>
    <rc><c>Ce</c><c>   2</c></rc>
    <rc><c>Ce</c><c>   2</c></rc>
    <rc><c>Ce</c><c>   2</c></rc>
    <rc><c>Ce</c><c>   2</c></rc>
    <rc><c>Ce</c><c>   2</c></rc>
    <rc><c>Ce</c><c>   2</c></rc>
    <rc><c>Ce</c><c>   2</c></rc>
    <rc><c>Ce</c><c>   2</c></rc>
    <rc><c>Ce</c><c>   2</c></rc>
    <rc><c>Ce</c><c>   2</c></rc>
    <rc><c>Ce</c><c>   2</c></rc>
    <rc><c>Ce</c><c>   2</c></rc>
    <rc><c>Ce</c><c>   2</c></rc>
    <rc><c>Ce</c><c>   2</c></rc>
   </set>
  </array>
  <array name="atomtypes" >
   <dimension dim="1">type</dimension>
   <field type="int">atomspertype</field>
   <field type="string">element</field>
   <field>mass</field>
   <field>valence</field>
   <field type="string">pseudopotential</field>
   <set>
    <rc><c>  54</c><c>Ta</c><c>    180.94800000</c><c>     11.00000000</c><c>  PAW_PBE Ta_pv 07Sep2000               </c></rc>
    <rc><c>  32</c><c>Ce</c><c>    140.11500000</c><c>     12.00000000</c><c>  PAW_PBE Ce 23Dec2003                  </c></rc>
   </set>
  </array>
 </atominfo>
 <structure name="initialpos" >
  <crystal>
   <varray name="basis" >
    <v>       9.97316200       0.15154800      -0.06938500 </v>
    <v>      -0.00168200      10.28915600       0.04718800 </v>
    <v>       0.05506500      -0.06835500      21.90153400 </v>
   </varray>
   <i name="volume">   2247.51255098 </i>
   <varray name="rec_basis" >
    <v>       0.10026708       0.00001755      -0.00025204 </v>
    <v>      -0.00147469       0.09718805       0.00030703 </v>
    <v>       0.00032083      -0.00020934       0.04565744 </v>
   </varray>
  </crystal>
  <varray name="positions" >
   <v>       0.08784623       0.03198740       0.49489191 </v>
   <v>       0.17545274       0.15610960       0.08972284 </v>
   <v>       0.01023956       0.00138427       0.16365644 </v>
   <v>       0.19927050       0.17824099       0.22692285 </v>
   <v>       0.02261553       0.03062008       0.29404131 </v>
   <v>       0.17176304       0.14501986       0.39115801 </v>
   <v>       0.01125523       0.36626934       0.01094378 </v>
   <v>       0.04171847       0.34225638       0.15939251 </v>
   <v>       0.04383836       0.35014018       0.31388441 </v>
   <v>       0.02405377       0.70325808       0.46468214 </v>
   <v>       0.18265180       0.54032318       0.07683212 </v>
   <v>       0.01798511       0.68643116       0.16612419 </v>
   <v>       0.19975794       0.51777881       0.23266937 </v>
   <v>       0.98970442       0.71166707       0.32462287 </v>
   <v>       0.18126889       0.53680059       0.38983640 </v>
   <v>       0.18112571       0.86907836       0.08105353 </v>
   <v>       0.17485313       0.83641630       0.23232601 </v>
   <v>       0.22778049       0.82764389       0.40419498 </v>
   <v>       0.33508538       0.99502681       0.00450636 </v>
   <v>       0.38221943       0.03464980       0.14793475 </v>
   <v>       0.35815467       0.02113645       0.32112206 </v>
   <v>       0.32167861       0.34253661       0.02011989 </v>
   <v>       0.36227078       0.31284052       0.14192716 </v>
   <v>       0.35412734       0.33195898       0.32753324 </v>
   <v>       0.34723832       0.70456938       0.00231946 </v>
   <v>       0.33841331       0.66970355       0.14536197 </v>
   <v>       0.35051094       0.69151733       0.30701061 </v>
   <v>       0.66432315       0.05939976       0.47720016 </v>
   <v>       0.56955413       0.17940714       0.04867677 </v>
   <v>       0.69260244       0.00793305       0.15681319 </v>
   <v>       0.51241641       0.18221142       0.25304036 </v>
   <v>       0.68090920       0.03216648       0.32763080 </v>
   <v>       0.51557339       0.19617183       0.39222980 </v>
   <v>       0.74848948       0.35100916       0.97861505 </v>
   <v>       0.66725532       0.35310261       0.15468465 </v>
   <v>       0.67292054       0.37560987       0.32196183 </v>
   <v>       0.73216289       0.66926652       0.47330631 </v>
   <v>       0.49495296       0.52384388       0.06847427 </v>
   <v>       0.67433578       0.68505984       0.15148080 </v>
   <v>       0.53277515       0.52346417       0.23200685 </v>
   <v>       0.70050529       0.66722793       0.30626139 </v>
   <v>       0.50970419       0.53869513       0.39671281 </v>
   <v>       0.53101417       0.87466161       0.07947360 </v>
   <v>       0.49733841       0.85928647       0.22029432 </v>
   <v>       0.56043932       0.84490640       0.40733744 </v>
   <v>       0.84122412       0.20949410       0.08362124 </v>
   <v>       0.84846741       0.19499002       0.24713734 </v>
   <v>       0.89497379       0.16189427       0.38560195 </v>
   <v>       0.85933175       0.53944730       0.08624489 </v>
   <v>       0.83534460       0.49669177       0.22996417 </v>
   <v>       0.84851833       0.51017983       0.39733426 </v>
   <v>       0.88594058       0.84869089       0.09897540 </v>
   <v>       0.82482304       0.84277802       0.23821553 </v>
   <v>       0.84215999       0.87811558       0.40280358 </v>
   <v>       0.74192622       0.65082383       0.97268173 </v>
   <v>       0.35796316       0.00513414       0.52483742 </v>
   <v>       0.10632719       0.83478683       0.60442704 </v>
   <v>       0.84832901       0.91639171       0.57250397 </v>
   <v>       0.35190720       0.66930689       0.52553988 </v>
   <v>       0.04723446       0.32148481       0.50408919 </v>
   <v>       0.64094428       0.37525569       0.50940302 </v>
   <v>       0.76206216       0.70902483       0.74819411 </v>
   <v>       0.29795876       0.32143337       0.47971065 </v>
   <v>       0.13617848       0.38793434       0.60426947 </v>
   <v>       0.70245898       0.53092304       0.61588768 </v>
   <v>       0.44591152       0.81437680       0.66957057 </v>
   <v>       0.65020766       0.10181008       0.63628373 </v>
   <v>       0.38875336       0.53487763       0.73775926 </v>
   <v>       0.57482563       0.83810762       0.54001651 </v>
   <v>       0.03674445       0.14902246       0.62714029 </v>
   <v>       0.37402576       0.21045569       0.68183381 </v>
   <v>       0.64180988       0.96758802       0.76170703 </v>
   <v>       0.00190698       0.40823311       0.74957436 </v>
   <v>       0.71939873       0.32722777       0.71639085 </v>
   <v>       0.96898679       0.14183496       0.76809007 </v>
   <v>       0.07526823       0.75404882       0.82005906 </v>
   <v>       0.51620073       0.76664065       0.89661175 </v>
   <v>       0.52157266       0.45186086       0.92484746 </v>
   <v>       0.37209762       0.10944372       0.83873580 </v>
   <v>       0.80503517       0.82332245       0.86063476 </v>
   <v>       0.14425092       0.08648361       0.93028721 </v>
   <v>       0.58489499       0.11789306       0.89976095 </v>
   <v>       0.90181143       0.33358075       0.87781837 </v>
   <v>       0.85381140       0.04750518       0.99919592 </v>
   <v>       0.06309521       0.70412259       0.96479254 </v>
   <v>       0.21092882       0.45337894       0.87766273 </v>
  </varray>
 </structure>
 <calculation>
  <scstep>
   <time name="dav">  473.85   68.50</time>
   <time name="total">  489.45   74.31</time>
   <energy>
    <i name="alphaZ">   7339.51995249 </i>
    <i name="ewald"> -49612.65161590 </i>
    <i name="hartreedc"> -40870.05737054 </i>
    <i name="XCdc">   1417.75030911 </i>
    <i name="pawpsdc">  71558.09676363 </i>
    <i name="pawaedc"> -69890.81646796 </i>
    <i name="eentropy">      0.00256064 </i>
    <i name="bandstr">   4164.07160696 </i>
    <i name="atom">  90566.95454612 </i>
    <i name="e_fr_energy">  14672.87028455 </i>
    <i name="e_wo_entrp">  14672.86772390 </i>
    <i name="e_0_energy">  14672.86943100 </i>
   </energy>
  </scstep>
  <scstep>
   <time name="dav">  515.47   74.22</time>
   <time name="total">  515.55   74.24</time>
   <energy>
    <i name="e_fr_energy">   2273.63355147 </i>
    <i name="e_wo_entrp">   2273.63353170 </i>
    <i name="e_0_energy">   2273.63354488 </i>
   </energy>
  </scstep>
  <scstep>
   <time name="dav">  495.79   71.50</time>
   <time name="total">  495.88   71.52</time>
   <energy>
    <i name="e_fr_energy">   -337.10030049 </i>
    <i name="e_wo_entrp">   -337.08893887 </i>
    <i name="e_0_energy">   -337.09651328 </i>
   </energy>
  </scstep>
  <scstep>
   <time name="dav">  680.04   98.08</time>
   <time name="total">  680.12   98.10</time>
   <energy>
    <i name="e_fr_energy">   -813.49824474 </i>
    <i name="e_wo_entrp">   -813.49066075 </i>
    <i name="e_0_energy">   -813.49571674 </i>
   </energy>
  </scstep>
  <scstep>
   <time name="dav">  729.89  105.15</time>
   <time name="total">  732.91  106.48</time>
   <energy>
    <i name="e_fr_energy">   -889.48430559 </i>
    <i name="e_wo_entrp">   -889.48832710 </i>
    <i name="e_0_energy">   -889.48564609 </i>
   </energy>
  </scstep>
  <scstep>
   <time name="dav">  627.15   90.58</time>
   <time name="total">  644.55   97.27</time>
   <energy>
    <i name="e_fr_energy">  -2146.39723817 </i>
    <i name="e_wo_entrp">  -2146.39956337 </i>
    <i name="e_0_energy">  -2146.39801324 </i>
   </energy>
  </scstep>
  <scstep>
   <time name="dav">  817.71  117.89</time>
   <time name="total">  836.06  124.89</time>
   <energy>
    <i name="e_fr_energy">  -3789.10208806 </i>
    <i name="e_wo_entrp">  -3789.10442221 </i>
    <i name="e_0_energy">  -3789.10286611 </i>
   </energy>
  </scstep>
  <scstep>
   <time name="dav">  723.69  104.20</time>
   <time name="total">  741.20  110.94</time>
   <energy>
    <i name="e_fr_energy">  -1904.43169722 </i>
    <i name="e_wo_entrp">  -1904.43122801 </i>
    <i name="e_0_energy">  -1904.43154082 </i>
   </energy>
  </scstep>
  <scstep>
   <time name="dav">  725.59  104.34</time>
   <time name="total">  743.39  111.12</time>
   <energy>
    <i name="e_fr_energy">  -1647.41893500 </i>
    <i name="e_wo_entrp">  -1647.42382523 </i>
    <i name="e_0_energy">  -1647.42056507 </i>
   </energy>
  </scstep>
  <scstep>
   <time name="dav">  707.52  101.93</time>
   <time name="total">  725.51  109.06</time>
   <energy>
    <i name="e_fr_energy">  -1237.89497440 </i>
    <i name="e_wo_entrp">  -1237.90262880 </i>
    <i name="e_0_energy">  -1237.89752587 </i>
   </energy>
  </scstep>
  <scstep>
   <time name="dav">  613.81   88.42</time>
   <time name="total">  631.63   95.18</time>
   <energy>
    <i name="e_fr_energy">  -1137.82758223 </i>
    <i name="e_wo_entrp">  -1137.83124809 </i>
    <i name="e_0_energy">  -1137.82880418 </i>
   </energy>
  </scstep>
  <scstep>
   <time name="dav">  689.47   99.19</time>
   <time name="total">  707.70  106.30</time>
   <energy>
    <i name="e_fr_energy">  -1044.89260863 </i>
    <i name="e_wo_entrp">  -1044.89206193 </i>
    <i name="e_0_energy">  -1044.89242639 </i>
   </energy>
  </scstep>
  <scstep>
   <time name="dav">  673.05   96.87</time>
   <time name="total">  690.69  103.69</time>
   <energy>
    <i name="e_fr_energy">  -1026.74380658 </i>
    <i name="e_wo_entrp">  -1026.75111090 </i>
    <i name="e_0_energy">  -1026.74624135 </i>
   </energy>
  </scstep>
  <scstep>
   <time name="dav">  670.82   96.42</time>
   <time name="total">  688.97  103.45</time>
   <energy>
    <i name="e_fr_energy">   -981.79968913 </i>
    <i name="e_wo_entrp">   -981.77655720 </i>
    <i name="e_0_energy">   -981.79197848 </i>
   </energy>
  </scstep>
  <scstep>
   <time name="dav">  703.82  101.41</time>
   <time name="total">  721.71  108.33</time>
   <energy>
    <i name="e_fr_energy">   -968.85487816 </i>
    <i name="e_wo_entrp">   -968.85927446 </i>
    <i name="e_0_energy">   -968.85634360 </i>
   </energy>
  </scstep>
  <scstep>
   <time name="dav">  708.62  101.99</time>
   <time name="total">  726.29  108.82</time>
   <energy>
    <i name="e_fr_energy">   -916.21538484 </i>
    <i name="e_wo_entrp">   -916.21620143 </i>
    <i name="e_0_energy">   -916.21565703 </i>
   </energy>
  </scstep>
  <scstep>
   <time name="dav">  728.83  104.72</time>
   <time name="total">  747.20  111.85</time>
   <energy>
    <i name="e_fr_energy">   -882.15407156 </i>
    <i name="e_wo_entrp">   -882.16015223 </i>
    <i name="e_0_energy">   -882.15609845 </i>
   </energy>
  </scstep>
  <scstep>
   <time name="dav">  716.50  103.16</time>
   <time name="total">  734.25  110.01</time>
   <energy>
    <i name="e_fr_energy">   -918.01553151 </i>
    <i name="e_wo_entrp">   -918.02020627 </i>
    <i name="e_0_energy">   -918.01708977 </i>
   </energy>
  </scstep>
  <scstep>
   <time name="dav">  794.90  114.31</time>
   <time name="total">  812.63  121.16</time>
   <energy>
    <i name="e_fr_energy">   -849.64625029 </i>
    <i name="e_wo_entrp">   -849.66014618 </i>
    <i name="e_0_energy">   -849.65088226 </i>
   </energy>
  </scstep>
  <scstep>
   <time name="dav">  736.28  106.01</time>
   <time name="total">  753.96  112.81</time>
   <energy>
    <i name="e_fr_energy">   -852.54094374 </i>
    <i name="e_wo_entrp">   -852.53365868 </i>
    <i name="e_0_energy">   -852.53851539 </i>
   </energy>
  </scstep>
  <scstep>
   <time name="dav">  748.82  107.90</time>
   <time name="total">  766.61  114.73</time>
   <energy>
    <i name="e_fr_energy">   -873.81203015 </i>
    <i name="e_wo_entrp">   -873.81200113 </i>
    <i name="e_0_energy">   -873.81202048 </i>
   </energy>
  </scstep>
  <scstep>
   <time name="dav">  723.86  104.32</time>
   <time name="total">  742.19  111.46</time>
   <energy>
    <i name="e_fr_energy">   -836.01967027 </i>
    <i name="e_wo_entrp">   -835.98580443 </i>
    <i name="e_0_energy">   -836.00838166 </i>
   </energy>
  </scstep>
  <scstep>
   <time name="dav">  785.66  113.00</time>
   <time name="total">  803.51  119.90</time>
   <energy>
    <i name="e_fr_energy">   -833.16075845 </i>
    <i name="e_wo_entrp">   -833.16633424 </i>
    <i name="e_0_energy">   -833.16261704 </i>
   </energy>
  </scstep>
  <scstep>
   <time name="dav">  778.24  112.39</time>
   <time name="total">  796.02  119.22</time>
   <energy>
    <i name="e_fr_energy">   -825.03945722 </i>
    <i name="e_wo_entrp">   -825.03470219 </i>
    <i name="e_0_energy">   -825.03787221 </i>
   </energy>
  </scstep>
  <scstep>
   <time name="dav">  727.26  104.84</time>
   <time name="total">  745.56  111.97</time>
   <energy>
    <i name="e_fr_energy">   -829.39702317 </i>
    <i name="e_wo_entrp">   -829.40293235 </i>
    <i name="e_0_energy">   -829.39899289 </i>
   </energy>
  </scstep>
  <scstep>
   <time name="dav">  758.80  109.29</time>
   <time name="total">  777.14  116.42</time>
   <energy>
    <i name="e_fr_energy">   -825.81072845 </i>
    <i name="e_wo_entrp">   -825.83193998 </i>
    <i name="e_0_energy">   -825.81779896 </i>
   </energy>
  </scstep>
  <scstep>
   <time name="dav">  778.96  112.31</time>
   <time name="total">  796.80  119.15</time>
   <energy>
    <i name="e_fr_energy">   -817.10105426 </i>
    <i name="e_wo_entrp">   -817.11005283 </i>
    <i name="e_0_energy">   -817.10405378 </i>
   </energy>
  </scstep>
  <scstep>
   <time name="dav">  719.49  103.42</time>
   <time name="total">  737.87  110.57</time>
   <energy>
    <i name="e_fr_energy">   -816.64052861 </i>
    <i name="e_wo_entrp">   -816.64178311 </i>
    <i name="e_0_energy">   -816.64094677 </i>
   </energy>
  </scstep>
  <scstep>
   <time name="dav">  721.34  103.75</time>
   <time name="total">  739.73  110.89</time>
   <energy>
    <i name="e_fr_energy">   -827.97120260 </i>
    <i name="e_wo_entrp">   -827.94040922 </i>
    <i name="e_0_energy">   -827.96093814 </i>
   </energy>
  </scstep>
  <scstep>
   <time name="dav">  761.05  109.77</time>
   <time name="total">  779.26  116.95</time>
   <energy>
    <i name="e_fr_energy">   -812.02228502 </i>
    <i name="e_wo_entrp">   -811.96395561 </i>
    <i name="e_0_energy">   -812.00284188 </i>
   </energy>
  </scstep>
  <scstep>
   <time name="dav">  753.07  108.49</time>
   <time name="total">  771.27  115.53</time>
   <energy>
    <i name="e_fr_energy">   -815.60830708 </i>
    <i name="e_wo_entrp">   -815.60310838 </i>
    <i name="e_0_energy">   -815.60657418 </i>
   </energy>
  </scstep>
  <scstep>
   <time name="dav">  761.17  109.75</time>
   <time name="total">  779.27  116.76</time>
   <energy>
    <i name="e_fr_energy">   -824.02200793 </i>
    <i name="e_wo_entrp">   -824.00806222 </i>
    <i name="e_0_energy">   -824.01735936 </i>
   </energy>
  </scstep>
  <scstep>
   <time name="dav">  753.90  108.74</time>
   <time name="total">  772.10  115.89</time>
   <energy>
    <i name="e_fr_energy">   -816.66177936 </i>
    <i name="e_wo_entrp">   -816.66069710 </i>
    <i name="e_0_energy">   -816.66141861 </i>
   </energy>
  </scstep>
  <scstep>
   <time name="dav">  779.89  112.56</time>
   <time name="total">  798.02  119.51</time>
   <energy>
    <i name="e_fr_energy">   -808.87274268 </i>
    <i name="e_wo_entrp">   -808.86492353 </i>
    <i name="e_0_energy">   -808.87013630 </i>
   </energy>
  </scstep>
  <scstep>
   <time name="dav">  741.59  106.83</time>
   <time name="total">  760.09  114.00</time>
   <energy>
    <i name="e_fr_energy">   -811.01154567 </i>
    <i name="e_wo_entrp">   -810.98339923 </i>
    <i name="e_0_energy">   -811.00216352 </i>
   </energy>
  </scstep>
  <scstep>
   <time name="dav">  771.95  111.17</time>
   <time name="total">  790.44  118.32</time>
   <energy>
    <i name="e_fr_energy">   -812.86397225 </i>
    <i name="e_wo_entrp">   -812.86074466 </i>
    <i name="e_0_energy">   -812.86289639 </i>
   </energy>
  </scstep>
  <scstep>
   <time name="dav">  752.37  108.35</time>
   <time name="total">  770.55  115.43</time>
   <energy>
    <i name="e_fr_energy">   -810.43756078 </i>
    <i name="e_wo_entrp">   -810.47809105 </i>
    <i name="e_0_energy">   -810.45107087 </i>
   </energy>
  </scstep>
  <scstep>
   <time name="dav">  700.47  100.76</time>
   <time name="total">  719.08  107.86</time>
   <energy>
    <i name="e_fr_energy">   -807.22707855 </i>
    <i name="e_wo_entrp">   -807.24890978 </i>
    <i name="e_0_energy">   -807.23435563 </i>
   </energy>
  </scstep>
  <scstep>
   <time name="dav">  788.89  113.64</time>
   <time name="total">  807.37  120.74</time>
   <energy>
    <i name="e_fr_energy">   -805.72588216 </i>
    <i name="e_wo_entrp">   -805.70815205 </i>
    <i name="e_0_energy">   -805.71997212 </i>
   </energy>
  </scstep>
  <scstep>
   <time name="dav">  689.93   99.65</time>
   <time name="total">  708.20  106.74</time>
   <energy>
    <i name="e_fr_energy">   -805.07427516 </i>
    <i name="e_wo_entrp">   -805.03178880 </i>
    <i name="e_0_energy">   -805.06011304 </i>
   </energy>
  </scstep>
  <scstep>
   <time name="dav">  743.69  107.05</time>
   <time name="total">  762.14  114.12</time>
   <energy>
    <i name="e_fr_energy">   -808.66844230 </i>
    <i name="e_wo_entrp">   -808.65564947 </i>
    <i name="e_0_energy">   -808.66417802 </i>
   </energy>
  </scstep>
  <scstep>
   <time name="dav">  771.17  111.14</time>
   <time name="total">  789.63  118.22</time>
   <energy>
    <i name="e_fr_energy">   -813.30107546 </i>
    <i name="e_wo_entrp">   -813.31581555 </i>
    <i name="e_0_energy">   -813.30598882 </i>
   </energy>
  </scstep>
  <scstep>
   <time name="dav">  768.94  110.83</time>
   <time name="total">  787.56  117.92</time>
   <energy>
    <i name="e_fr_energy">   -813.97359854 </i>
    <i name="e_wo_entrp">   -814.00325944 </i>
    <i name="e_0_energy">   -813.98348551 </i>
   </energy>
  </scstep>
  <scstep>
   <time name="dav">  712.73  102.74</time>
   <time name="total">  731.49  109.87</time>
   <energy>
    <i name="e_fr_energy">   -818.65236094 </i>
    <i name="e_wo_entrp">   -818.61322472 </i>
    <i name="e_0_energy">   -818.63931554 </i>
   </energy>
  </scstep>
  <scstep>
   <time name="dav">  765.47  110.10</time>
   <time name="total">  784.11  117.27</time>
   <energy>
    <i name="e_fr_energy">   -821.62264328 </i>
    <i name="e_wo_entrp">   -821.63323329 </i>
    <i name="e_0_energy">   -821.62617328 </i>
   </energy>
  </scstep>
  <scstep>
   <time name="dav">  709.62  102.08</time>
   <time name="total">  727.72  108.96</time>
   <energy>
    <i name="e_fr_energy">   -829.44884167 </i>
    <i name="e_wo_entrp">   -829.44773984 </i>
    <i name="e_0_energy">   -829.44847439 </i>
   </energy>
  </scstep>
  <scstep>
   <time name="dav">  692.54   99.79</time>
   <time name="total">  710.76  106.68</time>
   <energy>
    <i name="e_fr_energy">   -828.72830865 </i>
    <i name="e_wo_entrp">   -828.74181360 </i>
    <i name="e_0_energy">   -828.73281030 </i>
   </energy>
  </scstep>
  <scstep>
   <time name="dav">  797.37  114.68</time>
   <time name="total">  815.83  121.83</time>
   <energy>
    <i name="e_fr_energy">   -828.22929377 </i>
    <i name="e_wo_entrp">   -828.22752922 </i>
    <i name="e_0_energy">   -828.22870559 </i>
   </energy>
  </scstep>
  <scstep>
   <time name="dav">  672.27   97.00</time>
   <time name="total">  691.04  104.12</time>
   <energy>
    <i name="e_fr_energy">   -829.67068324 </i>
    <i name="e_wo_entrp">   -829.68915011 </i>
    <i name="e_0_energy">   -829.67683886 </i>
   </energy>
  </scstep>
  <scstep>
   <time name="dav">  727.29  104.62</time>
   <time name="total">  745.90  111.74</time>
   <energy>
    <i name="e_fr_energy">   -829.59778290 </i>
    <i name="e_wo_entrp">   -829.60870661 </i>
    <i name="e_0_energy">   -829.60142414 </i>
   </energy>
  </scstep>
  <scstep>
   <time name="dav">  729.11  104.90</time>
   <time name="total">  747.84  112.12</time>
   <energy>
    <i name="e_fr_energy">   -865.62328397 </i>
    <i name="e_wo_entrp">   -865.61692006 </i>
    <i name="e_0_energy">   -865.62116266 </i>
   </energy>
  </scstep>
  <scstep>
   <time name="dav">  700.26  100.73</time>
   <time name="total">  718.63  107.77</time>
   <energy>
    <i name="e_fr_energy">   -852.77047021 </i>
    <i name="e_wo_entrp">   -852.77299001 </i>
    <i name="e_0_energy">   -852.77131014 </i>
   </energy>
  </scstep>
  <scstep>
   <time name="dav">  682.96   98.44</time>
   <time name="total">  701.46  105.53</time>
   <energy>
    <i name="e_fr_energy">   -848.45965657 </i>
    <i name="e_wo_entrp">   -848.45090957 </i>
    <i name="e_0_energy">   -848.45674090 </i>
   </energy>
  </scstep>
  <scstep>
   <time name="dav">  742.66  106.81</time>
   <time name="total">  761.53  114.04</time>
   <energy>
    <i name="e_fr_energy">   -852.30538824 </i>
    <i name="e_wo_entrp">   -852.32770936 </i>
    <i name="e_0_energy">   -852.31282861 </i>
   </energy>
  </scstep>
  <scstep>
   <time name="dav">  740.22  106.73</time>
   <time name="total">  758.98  113.87</time>
   <energy>
    <i name="e_fr_energy">   -847.12089327 </i>
    <i name="e_wo_entrp">   -847.11023554 </i>
    <i name="e_0_energy">   -847.11734069 </i>
   </energy>
  </scstep>
  <scstep>
   <time name="dav">  677.61   97.50</time>
   <time name="total">  696.17  104.59</time>
   <energy>
    <i name="e_fr_energy">   -825.39197935 </i>
    <i name="e_wo_entrp">   -825.37494803 </i>
    <i name="e_0_energy">   -825.38630224 </i>
   </energy>
  </scstep>
  <scstep>
   <time name="dav">  705.00  101.51</time>
   <time name="total">  723.57  108.61</time>
   <energy>
    <i name="e_fr_energy">   -819.47146683 </i>
    <i name="e_wo_entrp">   -819.41800463 </i>
    <i name="e_0_energy">   -819.45364609 </i>
   </energy>
  </scstep>
  <scstep>
   <time name="dav">  721.12  103.66</time>
   <time name="total">  739.26  110.54</time>
   <energy>
    <i name="e_fr_energy">   -831.62049552 </i>
    <i name="e_wo_entrp">   -831.65118660 </i>
    <i name="e_0_energy">   -831.63072588 </i>
   </energy>
  </scstep>
  <scstep>
   <time name="dav">  746.15  107.52</time>
   <time name="total">  764.62  114.70</time>
   <energy>
    <i name="e_fr_energy">   -836.33328572 </i>
    <i name="e_wo_entrp">   -836.35143242 </i>
    <i name="e_0_energy">   -836.33933462 </i>
   </energy>
  </scstep>
  <scstep>
   <time name="dav">  698.74  100.68</time>
   <time name="total">  716.92  107.56</time>
   <energy>
    <i name="e_fr_energy">   -828.40601694 </i>
    <i name="e_wo_entrp">   -828.41610716 </i>
    <i name="e_0_energy">   -828.40938035 </i>
   </energy>
  </scstep>
  <scstep>
   <time name="dav">  759.80  109.31</time>
   <time name="total">  778.24  116.36</time>
   <energy>
    <i name="e_fr_energy">   -879.72173123 </i>
    <i name="e_wo_entrp">   -879.74162931 </i>
    <i name="e_0_energy">   -879.72836392 </i>
   </energy>
  </scstep>
  <scstep>
   <time name="dav">  710.50  102.22</time>
   <time name="total">  729.32  109.45</time>
   <energy>
    <i name="e_fr_energy">   -800.49147588 </i>
    <i name="e_wo_entrp">   -800.49762196 </i>
    <i name="e_0_energy">   -800.49352458 </i>
   </energy>
  </scstep>
  <scstep>
   <time name="dav">  736.75  105.95</time>
   <time name="total">  755.35  113.03</time>
   <energy>
    <i name="e_fr_energy">   -825.40669686 </i>
    <i name="e_wo_entrp">   -825.40767860 </i>
    <i name="e_0_energy">   -825.40702411 </i>
   </energy>
  </scstep>
  <scstep>
   <time name="dav">  692.53   99.86</time>
   <time name="total">  710.74  106.74</time>
   <energy>
    <i name="e_fr_energy">   -831.96595911 </i>
    <i name="e_wo_entrp">   -831.98298379 </i>
    <i name="e_0_energy">   -831.97163400 </i>
   </energy>
  </scstep>
  <scstep>
   <time name="dav">  744.64  107.39</time>
   <time name="total">  763.35  114.52</time>
   <energy>
    <i name="e_fr_energy">   -832.62786458 </i>
    <i name="e_wo_entrp">   -832.61034399 </i>
    <i name="e_0_energy">   -832.62202438 </i>
   </energy>
  </scstep>
  <scstep>
   <time name="dav">  743.71  107.19</time>
   <time name="total">  762.84  114.49</time>
   <energy>
    <i name="e_fr_energy">   -848.12065827 </i>
    <i name="e_wo_entrp">   -848.11597954 </i>
    <i name="e_0_energy">   -848.11909869 </i>
   </energy>
  </scstep>
  <scstep>
   <time name="dav">  733.33  105.87</time>
   <time name="total">  751.90  112.95</time>
   <energy>
    <i name="e_fr_energy">   -812.40780717 </i>
    <i name="e_wo_entrp">   -812.40954006 </i>
    <i name="e_0_energy">   -812.40838480 </i>
   </energy>
  </scstep>
  <scstep>
   <time name="dav">  742.64  106.90</time>
   <time name="total">  760.75  113.75</time>
   <energy>
    <i name="e_fr_energy">   -823.88290962 </i>
    <i name="e_wo_entrp">   -823.88514863 </i>
    <i name="e_0_energy">   -823.88365596 </i>
   </energy>
  </scstep>
  <scstep>
   <time name="dav">  751.69  108.13</time>
   <time name="total">  769.98  115.24</time>
   <energy>
    <i name="e_fr_energy">   -826.50278953 </i>
    <i name="e_wo_entrp">   -826.50190388 </i>
    <i name="e_0_energy">   -826.50249431 </i>
   </energy>
  </scstep>
  <scstep>
   <time name="dav">  791.70  114.11</time>
   <time name="total">  810.56  121.32</time>
   <energy>
    <i name="e_fr_energy">   -824.59151480 </i>
    <i name="e_wo_entrp">   -824.59889135 </i>
    <i name="e_0_energy">   -824.59397365 </i>
   </energy>
  </scstep>
  <scstep>
   <time name="dav">  703.98  101.44</time>
   <time name="total">  722.11  108.45</time>
   <energy>
    <i name="e_fr_energy">   -819.80445602 </i>
    <i name="e_wo_entrp">   -819.82463008 </i>
    <i name="e_0_energy">   -819.81118071 </i>
   </energy>
  </scstep>
  <scstep>
   <time name="dav">  687.94   99.00</time>
   <time name="total">  706.72  106.13</time>
   <energy>
    <i name="e_fr_energy">   -820.57096279 </i>
    <i name="e_wo_entrp">   -820.57098733 </i>
    <i name="e_0_energy">   -820.57097097 </i>
   </energy>
  </scstep>
  <scstep>
   <time name="dav">  723.21  104.00</time>
   <time name="total">  742.06  111.24</time>
   <energy>
    <i name="e_fr_energy">   -818.08574345 </i>
    <i name="e_wo_entrp">   -818.08530434 </i>
    <i name="e_0_energy">   -818.08559708 </i>
   </energy>
  </scstep>
  <scstep>
   <time name="dav">  780.99  112.51</time>
   <time name="total">  799.60  119.59</time>
   <energy>
    <i name="e_fr_energy">   -816.85481821 </i>
    <i name="e_wo_entrp">   -816.85336950 </i>
    <i name="e_0_energy">   -816.85433530 </i>
   </energy>
  </scstep>
  <scstep>
   <time name="dav">  779.71  112.36</time>
   <time name="total">  798.04  119.27</time>
   <energy>
    <i name="e_fr_energy">   -815.98027811 </i>
    <i name="e_wo_entrp">   -815.98192197 </i>
    <i name="e_0_energy">   -815.98082606 </i>
   </energy>
  </scstep>
  <scstep>
   <time name="dav">  755.92  108.84</time>
   <time name="total">  774.00  115.71</time>
   <energy>
    <i name="e_fr_energy">   -819.92258416 </i>
    <i name="e_wo_entrp">   -819.95964208 </i>
    <i name="e_0_energy">   -819.93493680 </i>
   </energy>
  </scstep>
  <scstep>
   <time name="dav">  731.67  105.16</time>
   <time name="total">  750.29  112.27</time>
   <energy>
    <i name="e_fr_energy">   -795.47359103 </i>
    <i name="e_wo_entrp">   -795.49932439 </i>
    <i name="e_0_energy">   -795.48216882 </i>
   </energy>
  </scstep>
  <scstep>
   <time name="dav">  709.62  102.44</time>
   <time name="total">  728.58  109.71</time>
   <energy>
    <i name="e_fr_energy">   -806.59084138 </i>
    <i name="e_wo_entrp">   -806.60730960 </i>
    <i name="e_0_energy">   -806.59633078 </i>
   </energy>
  </scstep>
  <scstep>
   <time name="dav">  682.84   98.31</time>
   <time name="total">  701.08  105.20</time>
   <energy>
    <i name="e_fr_energy">   -804.78313001 </i>
    <i name="e_wo_entrp">   -804.80236876 </i>
    <i name="e_0_energy">   -804.78954293 </i>
   </energy>
  </scstep>
  <scstep>
   <time name="dav">  733.10  105.69</time>
   <time name="total">  751.34  112.59</time>
   <energy>
    <i name="e_fr_energy">   -801.97585094 </i>
    <i name="e_wo_entrp">   -801.99564295 </i>
    <i name="e_0_energy">   -801.98244828 </i>
   </energy>
  </scstep>
  <scstep>
   <time name="dav">  724.69  104.33</time>
   <time name="total">  743.64  111.53</time>
   <energy>
    <i name="e_fr_energy">   -807.00423162 </i>
    <i name="e_wo_entrp">   -807.00306404 </i>
    <i name="e_0_energy">   -807.00384242 </i>
   </energy>
  </scstep>
  <scstep>
   <time name="dav">  744.65  107.24</time>
   <time name="total">  762.49  114.12</time>
   <energy>
    <i name="e_fr_energy">   -795.79213548 </i>
    <i name="e_wo_entrp">   -795.78716215 </i>
    <i name="e_0_energy">   -795.79047770 </i>
   </energy>
  </scstep>
  <scstep>
   <time name="dav">  711.07  102.41</time>
   <time name="total">  729.24  109.29</time>
   <energy>
    <i name="e_fr_energy">   -798.50680832 </i>
    <i name="e_wo_entrp">   -798.52418919 </i>
    <i name="e_0_energy">   -798.51260194 </i>
   </energy>
  </scstep>
  <scstep>
   <time name="dav">  755.16  108.67</time>
   <time name="total">  774.17  115.96</time>
   <energy>
    <i name="e_fr_energy">   -797.89902443 </i>
    <i name="e_wo_entrp">   -797.91042563 </i>
    <i name="e_0_energy">   -797.90282483 </i>
   </energy>
  </scstep>
  <scstep>
   <time name="dav">  749.12  107.77</time>
   <time name="total">  767.79  114.88</time>
   <energy>
    <i name="e_fr_energy">   -797.84940173 </i>
    <i name="e_wo_entrp">   -797.86680327 </i>
    <i name="e_0_energy">   -797.85520224 </i>
   </energy>
  </scstep>
  <scstep>
   <time name="dav">  731.85  105.33</time>
   <time name="total">  749.94  112.19</time>
   <energy>
    <i name="e_fr_energy">   -996.14802377 </i>
    <i name="e_wo_entrp">   -996.15518497 </i>
    <i name="e_0_energy">   -996.15041084 </i>
   </energy>
  </scstep>
  <scstep>
   <time name="dav">  658.01   95.00</time>
   <time name="total">  675.94  101.86</time>
   <energy>
    <i name="e_fr_energy">   -837.96592844 </i>
    <i name="e_wo_entrp">   -837.95152042 </i>
    <i name="e_0_energy">   -837.96112577 </i>
   </energy>
  </scstep>
  <scstep>
   <time name="dav">  702.63  101.37</time>
   <time name="total">  721.19  108.47</time>
   <energy>
    <i name="e_fr_energy">   -825.26141280 </i>
    <i name="e_wo_entrp">   -825.26647085 </i>
    <i name="e_0_energy">   -825.26309882 </i>
   </energy>
  </scstep>
  <scstep>
   <time name="dav">  712.80  102.66</time>
   <time name="total">  731.45  109.77</time>
   <energy>
    <i name="e_fr_energy">   -820.82442540 </i>
    <i name="e_wo_entrp">   -820.83286373 </i>
    <i name="e_0_energy">   -820.82723818 </i>
   </energy>
  </scstep>
  <scstep>
   <time name="dav">  734.00  105.71</time>
   <time name="total">  752.67  112.95</time>
   <energy>
    <i name="e_fr_energy">   -806.31568584 </i>
    <i name="e_wo_entrp">   -806.31435923 </i>
    <i name="e_0_energy">   -806.31524364 </i>
   </energy>
  </scstep>
  <scstep>
   <time name="dav">  707.55  101.78</time>
   <time name="total">  725.55  108.69</time>
   <energy>
    <i name="e_fr_energy">   -824.72897777 </i>
    <i name="e_wo_entrp">   -824.72538369 </i>
    <i name="e_0_energy">   -824.72777974 </i>
   </energy>
  </scstep>
  <scstep>
   <time name="dav">  709.52  102.09</time>
   <time name="total">  728.25  109.29</time>
   <energy>
    <i name="e_fr_energy">   -795.90871491 </i>
    <i name="e_wo_entrp">   -795.90857526 </i>
    <i name="e_0_energy">   -795.90866836 </i>
   </energy>
  </scstep>
  <scstep>
   <time name="dav">  711.11  102.35</time>
   <time name="total">  729.68  109.47</time>
   <energy>
    <i name="e_fr_energy">   -798.80204140 </i>
    <i name="e_wo_entrp">   -798.80921010 </i>
    <i name="e_0_energy">   -798.80443097 </i>
   </energy>
  </scstep>
  <scstep>
   <time name="dav">  709.12  102.15</time>
   <time name="total">  727.25  109.02</time>
   <energy>
    <i name="e_fr_energy">   -795.39566548 </i>
    <i name="e_wo_entrp">   -795.40233668 </i>
    <i name="e_0_energy">   -795.39788921 </i>
   </energy>
  </scstep>
  <scstep>
   <time name="dav">  713.10  102.86</time>
   <time name="total">  731.93  110.09</time>
   <energy>
    <i name="e_fr_energy">   -792.77169938 </i>
    <i name="e_wo_entrp">   -792.78626476 </i>
    <i name="e_0_energy">   -792.77655450 </i>
   </energy>
  </scstep>
  <scstep>
   <time name="dav">  743.22  107.23</time>
   <time name="total">  761.57  114.31</time>
   <energy>
    <i name="e_fr_energy">   -794.31466796 </i>
    <i name="e_wo_entrp">   -794.32631180 </i>
    <i name="e_0_energy">   -794.31854924 </i>
   </energy>
  </scstep>
  <scstep>
   <time name="dav">  750.23  108.14</time>
   <time name="total">  769.04  115.36</time>
   <energy>
    <i name="e_fr_energy">   -790.08257923 </i>
    <i name="e_wo_entrp">   -790.10436699 </i>
    <i name="e_0_energy">   -790.08984181 </i>
   </energy>
  </scstep>
  <scstep>
   <time name="dav">  733.00  105.52</time>
   <time name="total">  751.11  112.38</time>
   <energy>
    <i name="e_fr_energy">   -790.21782966 </i>
    <i name="e_wo_entrp">   -790.21371059 </i>
    <i name="e_0_energy">   -790.21645663 </i>
   </energy>
  </scstep>
  <scstep>
   <time name="dav">  736.55  106.11</time>
   <time name="total">  754.81  113.20</time>
   <energy>
    <i name="e_fr_energy">   -788.67924342 </i>
    <i name="e_wo_entrp">   -788.69924573 </i>
    <i name="e_0_energy">   -788.68591086 </i>
   </energy>
  </scstep>
  <scstep>
   <time name="dav">  718.25  103.44</time>
   <time name="total">  736.76  110.52</time>
   <energy>
    <i name="e_fr_energy">   -789.48628153 </i>
    <i name="e_wo_entrp">   -789.51407686 </i>
    <i name="e_0_energy">   -789.49554664 </i>
   </energy>
  </scstep>
  <scstep>
   <time name="dav">  746.39  107.73</time>
   <time name="total">  764.39  114.60</time>
   <energy>
    <i name="e_fr_energy">   -806.25703157 </i>
    <i name="e_wo_entrp">   -806.28396032 </i>
    <i name="e_0_energy">   -806.26600782 </i>
   </energy>
  </scstep>
  <scstep>
   <time name="dav">  768.12  110.59</time>
   <time name="total">  786.22  117.47</time>
   <energy>
    <i name="e_fr_energy">   -785.88846380 </i>
    <i name="e_wo_entrp">   -785.90215514 </i>
    <i name="e_0_energy">   -785.89302758 </i>
   </energy>
  </scstep>
  <scstep>
   <time name="dav">  736.00  105.99</time>
   <time name="total">  754.71  113.17</time>
   <energy>
    <i name="e_fr_energy">   -786.04704257 </i>
    <i name="e_wo_entrp">   -786.08018047 </i>
    <i name="e_0_energy">   -786.05808853 </i>
   </energy>
  </scstep>
  <scstep>
   <time name="dav">  686.09   98.91</time>
   <time name="total">  704.32  105.80</time>
   <energy>
    <i name="e_fr_energy">   -785.83105378 </i>
    <i name="e_wo_entrp">   -785.86797932 </i>
    <i name="e_0_energy">   -785.84336230 </i>
   </energy>
  </scstep>
  <scstep>
   <time name="dav">  692.26   99.65</time>
   <time name="total">  710.73  106.78</time>
   <energy>
    <i name="e_fr_energy">   -784.76060651 </i>
    <i name="e_wo_entrp">   -784.79506303 </i>
    <i name="e_0_energy">   -784.77209202 </i>
   </energy>
  </scstep>
  <scstep>
   <time name="dav">  724.97  104.43</time>
   <time name="total">  743.75  111.64</time>
   <energy>
    <i name="e_fr_energy">   -786.07222099 </i>
    <i name="e_wo_entrp">   -786.10406831 </i>
    <i name="e_0_energy">   -786.08283676 </i>
   </energy>
  </scstep>
  <scstep>
   <time name="dav">  728.41  104.96</time>
   <time name="total">  746.64  112.01</time>
   <energy>
    <i name="e_fr_energy">   -784.32222080 </i>
    <i name="e_wo_entrp">   -784.35655610 </i>
    <i name="e_0_energy">   -784.33366590 </i>
   </energy>
  </scstep>
  <scstep>
   <time name="dav">  765.43  110.32</time>
   <time name="total">  784.20  117.47</time>
   <energy>
    <i name="e_fr_energy">   -784.12174023 </i>
    <i name="e_wo_entrp">   -784.17430535 </i>
    <i name="e_0_energy">   -784.13926193 </i>
   </energy>
  </scstep>
  <scstep>
   <time name="dav">  680.45   98.16</time>
   <time name="total">  699.27  105.38</time>
   <energy>
    <i name="e_fr_energy">   -783.93451045 </i>
    <i name="e_wo_entrp">   -783.96695949 </i>
    <i name="e_0_energy">   -783.94532679 </i>
   </energy>
  </scstep>
  <scstep>
   <time name="dav">  746.75  107.54</time>
   <time name="total">  765.23  114.68</time>
   <energy>
    <i name="e_fr_energy">   -783.66045147 </i>
    <i name="e_wo_entrp">   -783.70396498 </i>
    <i name="e_0_energy">   -783.67495597 </i>
   </energy>
  </scstep>
  <scstep>
   <time name="dav">  705.28  101.54</time>
   <time name="total">  723.67  108.62</time>
   <energy>
    <i name="e_fr_energy">   -783.77034024 </i>
    <i name="e_wo_entrp">   -783.79260794 </i>
    <i name="e_0_energy">   -783.77776281 </i>
   </energy>
  </scstep>
  <scstep>
   <time name="dav">  756.03  108.83</time>
   <time name="total">  774.56  115.93</time>
   <energy>
    <i name="e_fr_energy">   -783.40707651 </i>
    <i name="e_wo_entrp">   -783.44693908 </i>
    <i name="e_0_energy">   -783.42036403 </i>
   </energy>
  </scstep>
  <scstep>
   <time name="dav">  721.60  103.89</time>
   <time name="total">  739.99  110.88</time>
   <energy>
    <i name="e_fr_energy">   -783.15077949 </i>
    <i name="e_wo_entrp">   -783.20020187 </i>
    <i name="e_0_energy">   -783.16725362 </i>
   </energy>
  </scstep>
  <scstep>
   <time name="dav">  732.16  105.48</time>
   <time name="total">  751.02  112.70</time>
   <energy>
    <i name="e_fr_energy">   -782.95324090 </i>
    <i name="e_wo_entrp">   -783.00326116 </i>
    <i name="e_0_energy">   -782.96991432 </i>
   </energy>
  </scstep>
  <scstep>
   <time name="dav">  767.11  110.51</time>
   <time name="total">  785.04  117.40</time>
   <energy>
    <i name="e_fr_energy">   -782.82931608 </i>
    <i name="e_wo_entrp">   -782.87805656 </i>
    <i name="e_0_energy">   -782.84556291 </i>
   </energy>
  </scstep>
  <scstep>
   <time name="dav">  738.34  106.42</time>
   <time name="total">  756.40  113.26</time>
   <energy>
    <i name="e_fr_energy">   -782.76539423 </i>
    <i name="e_wo_entrp">   -782.82203677 </i>
    <i name="e_0_energy">   -782.78427508 </i>
   </energy>
  </scstep>
  <scstep>
   <time name="dav">  765.94  110.52</time>
   <time name="total">  784.67  117.72</time>
   <energy>
    <i name="e_fr_energy">   -782.65789658 </i>
    <i name="e_wo_entrp">   -782.70966020 </i>
    <i name="e_0_energy">   -782.67515112 </i>
   </energy>
  </scstep>
  <scstep>
   <time name="dav">  694.68  100.10</time>
   <time name="total">  713.22  107.17</time>
   <energy>
    <i name="e_fr_energy">   -782.59033639 </i>
    <i name="e_wo_entrp">   -782.64217496 </i>
    <i name="e_0_energy">   -782.60761591 </i>
   </energy>
  </scstep>
  <scstep>
   <time name="dav">  677.28   97.52</time>
   <time name="total">  695.44  104.41</time>
   <energy>
    <i name="e_fr_energy">   -782.50212166 </i>
    <i name="e_wo_entrp">   -782.55253629 </i>
    <i name="e_0_energy">   -782.51892654 </i>
   </energy>
  </scstep>
  <scstep>
   <time name="dav">  717.64  103.42</time>
   <time name="total">  736.36  110.55</time>
   <energy>
    <i name="e_fr_energy">   -782.38967464 </i>
    <i name="e_wo_entrp">   -782.44882436 </i>
    <i name="e_0_energy">   -782.40939121 </i>
   </energy>
  </scstep>
  <scstep>
   <time name="dav">  659.33   94.98</time>
   <time name="total">  678.26  102.26</time>
   <energy>
    <i name="e_fr_energy">   -782.61771458 </i>
    <i name="e_wo_entrp">   -782.62428612 </i>
    <i name="e_0_energy">   -782.61990509 </i>
   </energy>
  </scstep>
  <scstep>
   <time name="dav">  682.96   98.27</time>
   <time name="total">  701.56  105.38</time>
   <energy>
    <i name="e_fr_energy">   -782.35341200 </i>
    <i name="e_wo_entrp">   -782.40676842 </i>
    <i name="e_0_energy">   -782.37119748 </i>
   </energy>
  </scstep>
  <scstep>
   <time name="dav">  736.33  105.92</time>
   <time name="total">  754.00  112.80</time>
   <energy>
    <i name="e_fr_energy">   -782.31023787 </i>
    <i name="e_wo_entrp">   -782.36410931 </i>
    <i name="e_0_energy">   -782.32819502 </i>
   </energy>
  </scstep>
  <scstep>
   <time name="dav">  726.24  104.55</time>
   <time name="total">  744.67  111.67</time>
   <energy>
    <i name="e_fr_energy">   -782.26716260 </i>
    <i name="e_wo_entrp">   -782.32802694 </i>
    <i name="e_0_energy">   -782.28745071 </i>
   </energy>
  </scstep>
  <scstep>
   <time name="dav">  705.92  101.70</time>
   <time name="total">  724.65  108.86</time>
   <energy>
    <i name="e_fr_energy">   -782.24813452 </i>
    <i name="e_wo_entrp">   -782.30895624 </i>
    <i name="e_0_energy">   -782.26840843 </i>
   </energy>
  </scstep>
  <scstep>
   <time name="dav">  711.34  102.61</time>
   <time name="total">  729.30  109.45</time>
   <energy>
    <i name="e_fr_energy">   -782.30470064 </i>
    <i name="e_wo_entrp">   -782.36426038 </i>
    <i name="e_0_energy">   -782.32455389 </i>
   </energy>
  </scstep>
  <scstep>
   <time name="dav">  709.84  102.26</time>
   <time name="total">  728.45  109.37</time>
   <energy>
    <i name="e_fr_energy">   -782.19729680 </i>
    <i name="e_wo_entrp">   -782.25611891 </i>
    <i name="e_0_energy">   -782.21690417 </i>
   </energy>
  </scstep>
  <scstep>
   <time name="dav">  706.07  101.69</time>
   <time name="total">  725.01  108.93</time>
   <energy>
    <i name="e_fr_energy">   -782.19345556 </i>
    <i name="e_wo_entrp">   -782.25616921 </i>
    <i name="e_0_energy">   -782.21436011 </i>
   </energy>
  </scstep>
  <scstep>
   <time name="dav">  786.93  113.14</time>
   <time name="total">  805.87  120.27</time>
   <energy>
    <i name="e_fr_energy">   -782.18714357 </i>
    <i name="e_wo_entrp">   -782.25036747 </i>
    <i name="e_0_energy">   -782.20821820 </i>
   </energy>
  </scstep>
  <scstep>
   <time name="dav">  716.90  103.50</time>
   <time name="total">  735.22  110.41</time>
   <energy>
    <i name="e_fr_energy">   -782.17331638 </i>
    <i name="e_wo_entrp">   -782.23567279 </i>
    <i name="e_0_energy">   -782.19410185 </i>
   </energy>
  </scstep>
  <scstep>
   <time name="dav">  701.25  100.93</time>
   <time name="total">  719.36  107.80</time>
   <energy>
    <i name="e_fr_energy">   -782.16473603 </i>
    <i name="e_wo_entrp">   -782.22711940 </i>
    <i name="e_0_energy">   -782.18553049 </i>
   </energy>
  </scstep>
  <scstep>
   <time name="dav">  708.71  102.23</time>
   <time name="total">  726.99  109.33</time>
   <energy>
    <i name="e_fr_energy">   -782.16557235 </i>
    <i name="e_wo_entrp">   -782.22734020 </i>
    <i name="e_0_energy">   -782.18616164 </i>
   </energy>
  </scstep>
  <scstep>
   <time name="dav">  726.34  104.51</time>
   <time name="total">  745.38  111.78</time>
   <energy>
    <i name="e_fr_energy">   -782.16009853 </i>
    <i name="e_wo_entrp">   -782.22151402 </i>
    <i name="e_0_energy">   -782.18057036 </i>
   </energy>
  </scstep>
  <scstep>
   <time name="dav">  722.66  104.16</time>
   <time name="total">  740.88  111.03</time>
   <energy>
    <i name="e_fr_energy">   -782.15316449 </i>
    <i name="e_wo_entrp">   -782.21446453 </i>
    <i name="e_0_energy">   -782.17359784 </i>
   </energy>
  </scstep>
  <scstep>
   <time name="dav">  746.00  107.47</time>
   <time name="total">  764.27  114.40</time>
   <energy>
    <i name="e_fr_energy">   -782.15065890 </i>
    <i name="e_wo_entrp">   -782.21149901 </i>
    <i name="e_0_energy">   -782.17093893 </i>
   </energy>
  </scstep>
  <scstep>
   <time name="dav">  710.04  102.19</time>
   <time name="total">  728.65  109.37</time>
   <energy>
    <i name="e_fr_energy">   -782.14942933 </i>
    <i name="e_wo_entrp">   -782.21182488 </i>
    <i name="e_0_energy">   -782.17022785 </i>
   </energy>
  </scstep>
  <scstep>
   <time name="dav">  714.53  103.02</time>
   <time name="total">  732.47  109.87</time>
   <energy>
    <i name="e_fr_energy">   -782.14819031 </i>
    <i name="e_wo_entrp">   -782.20997270 </i>
    <i name="e_0_energy">   -782.16878444 </i>
   </energy>
  </scstep>
  <scstep>
   <time name="dav">  724.62  104.55</time>
   <time name="total">  742.81  111.44</time>
   <energy>
    <i name="e_fr_energy">   -782.14600783 </i>
    <i name="e_wo_entrp">   -782.20766157 </i>
    <i name="e_0_energy">   -782.16655908 </i>
   </energy>
  </scstep>
  <scstep>
   <time name="dav">  690.26   99.96</time>
   <time name="total">  709.15  107.21</time>
   <energy>
    <i name="e_fr_energy">   -782.14386550 </i>
    <i name="e_wo_entrp">   -782.20515508 </i>
    <i name="e_0_energy">   -782.16429536 </i>
   </energy>
  </scstep>
  <scstep>
   <time name="dav">  700.70  100.94</time>
   <time name="total">  719.25  108.02</time>
   <energy>
    <i name="e_fr_energy">   -782.14255662 </i>
    <i name="e_wo_entrp">   -782.20377534 </i>
    <i name="e_0_energy">   -782.16296286 </i>
   </energy>
  </scstep>
  <scstep>
   <time name="dav">  659.76   95.21</time>
   <time name="total">  677.86  102.08</time>
   <energy>
    <i name="e_fr_energy">   -782.14171199 </i>
    <i name="e_wo_entrp">   -782.20267538 </i>
    <i name="e_0_energy">   -782.16203312 </i>
   </energy>
  </scstep>
  <scstep>
   <time name="dav">  679.32   98.12</time>
   <time name="total">  697.21  105.01</time>
   <energy>
    <i name="e_fr_energy">   -782.14172972 </i>
    <i name="e_wo_entrp">   -782.20258672 </i>
    <i name="e_0_energy">   -782.16201538 </i>
   </energy>
  </scstep>
  <scstep>
   <time name="dav">  604.97   89.12</time>
   <time name="total">  623.64   96.22</time>
   <energy>
    <i name="e_fr_energy">   -782.14156674 </i>
    <i name="e_wo_entrp">   -782.20226540 </i>
    <i name="e_0_energy">   -782.16179962 </i>
   </energy>
  </scstep>
  <scstep>
   <time name="dav">  578.28   84.97</time>
   <time name="total">  596.88   92.07</time>
   <energy>
    <i name="e_fr_energy">   -782.14152075 </i>
    <i name="e_wo_entrp">   -782.20226235 </i>
    <i name="e_0_energy">   -782.16176795 </i>
   </energy>
  </scstep>
  <scstep>
   <time name="dav">  515.14   79.31</time>
   <time name="total">  533.97   86.53</time>
   <energy>
    <i name="e_fr_energy">   -782.14143670 </i>
    <i name="e_wo_entrp">   -782.20204836 </i>
    <i name="e_0_energy">   -782.16164059 </i>
   </energy>
  </scstep>
  <scstep>
   <time name="dav">  584.52   88.05</time>
   <time name="total">  602.66   94.94</time>
   <energy>
    <i name="e_fr_energy">   -782.14149742 </i>
    <i name="e_wo_entrp">   -782.20167557 </i>
    <i name="e_0_energy">   -782.16155681 </i>
   </energy>
  </scstep>
  <scstep>
   <time name="dav">  522.36   80.41</time>
   <time name="total">  541.08   87.59</time>
   <energy>
    <i name="e_fr_energy">   -782.14140888 </i>
    <i name="e_wo_entrp">   -782.20184001 </i>
    <i name="e_0_energy">   -782.16155259 </i>
   </energy>
  </scstep>
  <scstep>
   <time name="dav">  416.20   71.74</time>
   <time name="total">  434.69   78.81</time>
   <energy>
    <i name="e_fr_energy">   -782.14140403 </i>
    <i name="e_wo_entrp">   -782.20190030 </i>
    <i name="e_0_energy">   -782.16156945 </i>
   </energy>
  </scstep>
  <scstep>
   <time name="dav">  333.12   66.45</time>
   <time name="total">  347.85   71.94</time>
   <energy>
    <i name="alphaZ">   7339.51995249 </i>
    <i name="ewald"> -49612.65161590 </i>
    <i name="hartreedc"> -40072.61244953 </i>
    <i name="XCdc">   1385.53370526 </i>
    <i name="pawpsdc"> 108081.84281862 </i>
    <i name="pawaedc">-106590.85851948 </i>
    <i name="eentropy">      0.06046506 </i>
    <i name="bandstr"> -11879.93029948 </i>
    <i name="atom">  90566.95454612 </i>
    <i name="e_fr_energy">   -782.14139685 </i>
    <i name="e_wo_entrp">   -782.20186191 </i>
    <i name="e_0_energy">   -782.16155187 </i>
   </energy>
  </scstep>
  <structure>
   <crystal>
    <varray name="basis" >
     <v>       9.97316200       0.15154800      -0.06938500 </v>
     <v>      -0.00168200      10.28915600       0.04718800 </v>
     <v>       0.05506500      -0.06835500      21.90153400 </v>
    </varray>
    <i name="volume">   2247.51255098 </i>
    <varray name="rec_basis" >
     <v>       0.10026708       0.00001755      -0.00025204 </v>
     <v>      -0.00147469       0.09718805       0.00030703 </v>
     <v>       0.00032083      -0.00020934       0.04565744 </v>
    </varray>
[...]
       <r>   -29.0961   185.7964    48.8445 </r>
       <r>   -28.9655   328.4752    91.7529 </r>
       <r>   -28.8349   320.6578   133.6400 </r>
       <r>   -28.7043   310.0638   174.1433 </r>
       <r>   -28.5736   328.1180   217.0050 </r>
       <r>   -28.4430   294.9760   255.5373 </r>
       <r>   -28.3124   284.9362   292.7582 </r>
       <r>   -28.1817   276.2298   328.8418 </r>
       <r>   -28.0511   235.1915   359.5646 </r>
       <r>   -27.9205   131.9031   376.7949 </r>
       <r>   -27.7898    46.9106   382.9228 </r>
       <r>   -27.6592    31.1576   386.9929 </r>
       <r>   -27.5286     8.3852   388.0882 </r>
       <r>   -27.3980    -0.6641   388.0015 </r>
       <r>   -27.2673    -0.0114   388.0000 </r>
       <r>   -27.1367    -0.0000   388.0000 </r>
       <r>   -27.0061    -0.0000   388.0000 </r>
       <r>   -26.8754     0.0000   388.0000 </r>
       <r>   -26.7448     0.0000   388.0000 </r>
       <r>   -26.6142     0.0000   388.0000 </r>
       <r>   -26.4836     0.0000   388.0000 </r>
       <r>   -26.3529     0.0000   388.0000 </r>
       <r>   -26.2223     0.0000   388.0000 </r>
       <r>   -26.0917     0.0000   388.0000 </r>
       <r>   -25.9610     0.0000   388.0000 </r>
       <r>   -25.8304     0.0000   388.0000 </r>
       <r>   -25.6998     0.0000   388.0000 </r>
       <r>   -25.5692     0.0000   388.0000 </r>
       <r>   -25.4385     0.0000   388.0000 </r>
       <r>   -25.3079     0.0000   388.0000 </r>
       <r>   -25.1773     0.0000   388.0000 </r>
       <r>   -25.0466     0.0000   388.0000 </r>
       <r>   -24.9160     0.0000   388.0000 </r>
       <r>   -24.7854     0.0000   388.0000 </r>
       <r>   -24.6548     0.0000   388.0000 </r>
       <r>   -24.5241     0.0000   388.0000 </r>
       <r>   -24.3935     0.0000   388.0000 </r>
       <r>   -24.2629     0.0000   388.0000 </r>
       <r>   -24.1322     0.0000   388.0000 </r>
       <r>   -24.0016     0.0000   388.0000 </r>
       <r>   -23.8710     0.0000   388.0000 </r>
       <r>   -23.7404     0.0000   388.0000 </r>
       <r>   -23.6097     0.0000   388.0000 </r>
       <r>   -23.4791     0.0000   388.0000 </r>
       <r>   -23.3485     0.0000   388.0000 </r>
       <r>   -23.2178     0.0000   388.0000 </r>
       <r>   -23.0872     0.0000   388.0000 </r>
       <r>   -22.9566     0.0000   388.0000 </r>
       <r>   -22.8260     0.0000   388.0000 </r>
       <r>   -22.6953     0.0000   388.0000 </r>
       <r>   -22.5647     0.0000   388.0000 </r>
       <r>   -22.4341     0.0000   388.0000 </r>
       <r>   -22.3034     0.0000   388.0000 </r>
       <r>   -22.1728     0.0000   388.0000 </r>
       <r>   -22.0422     0.0000   388.0000 </r>
       <r>   -21.9116     0.0000   388.0000 </r>
       <r>   -21.7809     0.0000   388.0000 </r>
       <r>   -21.6503     0.0000   388.0000 </r>
       <r>   -21.5197     0.0000   388.0000 </r>
       <r>   -21.3890     0.0000   388.0000 </r>
       <r>   -21.2584     0.0000   388.0000 </r>
       <r>   -21.1278     0.0000   388.0000 </r>
       <r>   -20.9971     0.0000   388.0000 </r>
       <r>   -20.8665     0.0000   388.0000 </r>
       <r>   -20.7359     0.0000   388.0000 </r>
       <r>   -20.6053     0.0000   388.0000 </r>
       <r>   -20.4746     0.0000   388.0000 </r>
       <r>   -20.3440     0.0000   388.0000 </r>
       <r>   -20.2134     0.0000   388.0000 </r>
       <r>   -20.0827     0.0000   388.0000 </r>
       <r>   -19.9521     0.0000   388.0000 </r>
       <r>   -19.8215     0.0000   388.0000 </r>
       <r>   -19.6909     0.0000   388.0000 </r>
       <r>   -19.5602     0.0000   388.0000 </r>
       <r>   -19.4296     0.0000   388.0000 </r>
       <r>   -19.2990     0.0000   388.0000 </r>
       <r>   -19.1683     0.0000   388.0000 </r>
       <r>   -19.0377     0.0000   388.0000 </r>
       <r>   -18.9071     0.0000   388.0000 </r>
       <r>   -18.7765     0.0000   388.0000 </r>
       <r>   -18.6458     0.0000   388.0000 </r>
       <r>   -18.5152     0.0000   388.0000 </r>
       <r>   -18.3846     0.0000   388.0000 </r>
       <r>   -18.2539     0.0000   388.0000 </r>
       <r>   -18.1233     0.0000   388.0000 </r>
       <r>   -17.9927     0.0000   388.0000 </r>
       <r>   -17.8621     0.0000   388.0000 </r>
       <r>   -17.7314     0.0000   388.0000 </r>
       <r>   -17.6008     0.0000   388.0000 </r>
       <r>   -17.4702     0.0000   388.0000 </r>
       <r>   -17.3395     0.0000   388.0000 </r>
       <r>   -17.2089     0.0000   388.0000 </r>
       <r>   -17.0783     0.0000   388.0000 </r>
       <r>   -16.9477     0.0000   388.0000 </r>
       <r>   -16.8170     0.0000   388.0000 </r>
       <r>   -16.6864     0.0000   388.0000 </r>
       <r>   -16.5558     0.0000   388.0000 </r>
       <r>   -16.4251     0.0000   388.0000 </r>
       <r>   -16.2945     0.0000   388.0000 </r>
       <r>   -16.1639     0.0000   388.0000 </r>
       <r>   -16.0333     0.0000   388.0000 </r>
       <r>   -15.9026     0.0000   388.0000 </r>
       <r>   -15.7720     0.0000   388.0000 </r>
       <r>   -15.6414     0.0000   388.0000 </r>
       <r>   -15.5107     0.0000   388.0000 </r>
       <r>   -15.3801     0.0000   388.0000 </r>
       <r>   -15.2495     0.0000   388.0000 </r>
       <r>   -15.1189     0.0000   388.0000 </r>
       <r>   -14.9882    -0.0000   388.0000 </r>
       <r>   -14.8576    -0.0000   388.0000 </r>
       <r>   -14.7270    -0.0000   388.0000 </r>
       <r>   -14.5963    -0.0000   388.0000 </r>
       <r>   -14.4657    -0.0000   388.0000 </r>
       <r>   -14.3351    -0.0423   387.9945 </r>
       <r>   -14.2044    -0.3222   387.9524 </r>
       <r>   -14.0738    11.8058   389.4946 </r>
       <r>   -13.9432     4.7552   390.1157 </r>
       <r>   -13.8126    13.0260   391.8173 </r>
       <r>   -13.6819    13.3849   393.5658 </r>
       <r>   -13.5513    15.2390   395.5564 </r>
       <r>   -13.4207    19.5673   398.1125 </r>
       <r>   -13.2900    23.2563   401.1504 </r>
       <r>   -13.1594    23.0216   404.1577 </r>
       <r>   -13.0288    13.2434   405.8877 </r>
       <r>   -12.8982    22.9667   408.8878 </r>
       <r>   -12.7675    58.0431   416.4699 </r>
       <r>   -12.6369    59.3853   424.2273 </r>
       <r>   -12.5063    48.2667   430.5323 </r>
       <r>   -12.3756    47.2140   436.6999 </r>
       <r>   -12.2450    68.9182   445.7026 </r>
       <r>   -12.1144    77.1192   455.7765 </r>
       <r>   -11.9838    78.4250   466.0211 </r>
       <r>   -11.8531    91.2547   477.9416 </r>
       <r>   -11.7225   119.6138   493.5666 </r>
       <r>   -11.5919   102.4579   506.9506 </r>
       <r>   -11.4612    84.9223   518.0439 </r>
       <r>   -11.3306    62.9583   526.2680 </r>
       <r>   -11.2000    54.4915   533.3862 </r>
       <r>   -11.0694    73.2172   542.9505 </r>
       <r>   -10.9387    69.1485   551.9833 </r>
       <r>   -10.8081    49.4461   558.4423 </r>
       <r>   -10.6775    18.0403   560.7989 </r>
       <r>   -10.5468    32.5001   565.0444 </r>
       <r>   -10.4162     9.4907   566.2841 </r>
       <r>   -10.2856    31.5274   570.4025 </r>
       <r>   -10.1550    13.0024   572.1010 </r>
       <r>   -10.0243    -1.1455   571.9514 </r>
       <r>    -9.8937     5.1810   572.6282 </r>
       <r>    -9.7631    10.4504   573.9933 </r>
       <r>    -9.6324     7.2815   574.9445 </r>
       <r>    -9.5018    13.9129   576.7619 </r>
       <r>    -9.3712     9.9482   578.0614 </r>
       <r>    -9.2406    -0.6835   577.9721 </r>
       <r>    -9.1099    12.4280   579.5956 </r>
       <r>    -8.9793     3.3886   580.0382 </r>
       <r>    -8.8487    -0.2912   580.0002 </r>
       <r>    -8.7180    -0.0015   580.0000 </r>
       <r>    -8.5874    -0.0000   580.0000 </r>
       <r>    -8.4568    -0.0000   580.0000 </r>
       <r>    -8.3262     0.0000   580.0000 </r>
       <r>    -8.1955     0.0000   580.0000 </r>
       <r>    -8.0649     0.0000   580.0000 </r>
       <r>    -7.9343     0.0000   580.0000 </r>
       <r>    -7.8036     0.0000   580.0000 </r>
       <r>    -7.6730     0.0000   580.0000 </r>
       <r>    -7.5424     0.0000   580.0000 </r>
       <r>    -7.4118     0.0000   580.0000 </r>
       <r>    -7.2811     0.0000   580.0000 </r>
       <r>    -7.1505     0.0000   580.0000 </r>
       <r>    -7.0199     0.0000   580.0000 </r>
       <r>    -6.8892     0.0000   580.0000 </r>
       <r>    -6.7586     0.0000   580.0000 </r>
       <r>    -6.6280     0.0000   580.0000 </r>
       <r>    -6.4973     0.0000   580.0000 </r>
       <r>    -6.3667     0.0000   580.0000 </r>
       <r>    -6.2361     0.0000   580.0000 </r>
       <r>    -6.1055     0.0000   580.0000 </r>
       <r>    -5.9748     0.0000   580.0000 </r>
       <r>    -5.8442     0.0000   580.0000 </r>
       <r>    -5.7136     0.0000   580.0000 </r>
       <r>    -5.5829     0.0000   580.0000 </r>
       <r>    -5.4523     0.0000   580.0000 </r>
       <r>    -5.3217     0.0000   580.0000 </r>
       <r>    -5.1911     0.0000   580.0000 </r>
       <r>    -5.0604     0.0000   580.0000 </r>
       <r>    -4.9298     0.0000   580.0000 </r>
       <r>    -4.7992     0.0000   580.0000 </r>
       <r>    -4.6685     0.0000   580.0000 </r>
       <r>    -4.5379     0.0000   580.0000 </r>
       <r>    -4.4073     0.0000   580.0000 </r>
       <r>    -4.2767     0.0000   580.0000 </r>
       <r>    -4.1460     0.0000   580.0000 </r>
       <r>    -4.0154     0.0000   580.0000 </r>
       <r>    -3.8848     0.0000   580.0000 </r>
       <r>    -3.7541     0.0000   580.0000 </r>
       <r>    -3.6235     0.0000   580.0000 </r>
       <r>    -3.4929     0.0000   580.0000 </r>
       <r>    -3.3623     0.0000   580.0000 </r>
       <r>    -3.2316     0.0000   580.0000 </r>
       <r>    -3.1010     0.0000   580.0000 </r>
       <r>    -2.9704     0.0000   580.0000 </r>
       <r>    -2.8397     0.0000   580.0000 </r>
       <r>    -2.7091    -0.0000   580.0000 </r>
       <r>    -2.5785    -0.0000   580.0000 </r>
       <r>    -2.4479    -0.0000   580.0000 </r>
       <r>    -2.3172    -0.0000   580.0000 </r>
       <r>    -2.1866    -0.0000   580.0000 </r>
       <r>    -2.0560    -0.0012   579.9998 </r>
       <r>    -1.9253    -0.0366   579.9951 </r>
       <r>    -1.7947     0.4775   580.0574 </r>
       <r>    -1.6641     2.6131   580.3988 </r>
       <r>    -1.5335     4.0048   580.9219 </r>
       <r>    -1.4028     1.6292   581.1348 </r>
       <r>    -1.2722     2.0588   581.4037 </r>
       <r>    -1.1416     6.4352   582.2443 </r>
       <r>    -1.0109     3.0526   582.6431 </r>
       <r>    -0.8803     0.2858   582.6804 </r>
       <r>    -0.7497     3.9792   583.2002 </r>
       <r>    -0.6191     9.5932   584.4534 </r>
       <r>    -0.4884     6.0106   585.2385 </r>
       <r>    -0.3578     5.8726   586.0057 </r>
       <r>    -0.2272     8.8752   587.1650 </r>
       <r>    -0.0965     6.7453   588.0462 </r>
       <r>     0.0341     3.6393   588.5215 </r>
       <r>     0.1647    11.0615   589.9665 </r>
       <r>     0.2954    12.2585   591.5678 </r>
       <r>     0.4260     8.1185   592.6283 </r>
       <r>     0.5566     9.2773   593.8402 </r>
       <r>     0.6872     9.9362   595.1382 </r>
       <r>     0.8179    10.5573   596.5173 </r>
       <r>     0.9485    15.9635   598.6025 </r>
       <r>     1.0791    18.8700   601.0675 </r>
       <r>     1.2098    20.8182   603.7870 </r>
       <r>     1.3404    21.0407   606.5355 </r>
       <r>     1.4710    27.5541   610.1348 </r>
       <r>     1.6016    29.4666   613.9840 </r>
       <r>     1.7323    33.3156   618.3360 </r>
       <r>     1.8629    36.3912   623.0897 </r>
       <r>     1.9935    50.2080   629.6483 </r>
       <r>     2.1242    41.3302   635.0473 </r>
       <r>     2.2548    44.1058   640.8087 </r>
       <r>     2.3854    49.3882   647.2603 </r>
       <r>     2.5160    51.4540   653.9816 </r>
       <r>     2.6467    60.8312   661.9280 </r>
       <r>     2.7773    64.7295   670.3835 </r>
       <r>     2.9079    57.9740   677.9566 </r>
       <r>     3.0386    58.1817   685.5568 </r>
       <r>     3.1692    53.6014   692.5587 </r>
       <r>     3.2998    55.4042   699.7961 </r>
       <r>     3.4304    66.3126   708.4584 </r>
       <r>     3.5611    82.9094   719.2887 </r>
       <r>     3.6917    96.7988   731.9335 </r>
       <r>     3.8223   108.1638   746.0628 </r>
       <r>     3.9530   108.2075   760.1978 </r>
       <r>     4.0836   118.6833   775.7012 </r>
       <r>     4.2142   122.4728   791.6997 </r>
       <r>     4.3448   125.0960   808.0409 </r>
       <r>     4.4755   132.0437   825.2896 </r>
       <r>     4.6061   132.8645   842.6455 </r>
       <r>     4.7367   130.7552   859.7259 </r>
       <r>     4.8674   137.2397   877.6534 </r>
       <r>     4.9980   134.2610   895.1917 </r>
       <r>     5.1286   137.8090   913.1936 </r>
       <r>     5.2592   153.9044   933.2979 </r>
       <r>     5.3899   168.0772   955.2536 </r>
       <r>     5.5205   209.7740   982.6562 </r>
       <r>     5.6511   330.1188  1025.7792 </r>
       <r>     5.7818   491.4584  1089.9779 </r>
       <r>     5.9124   516.7926  1157.4859 </r>
       <r>     6.0430   152.2859  1177.3788 </r>
       <r>     6.1736   -10.2605  1176.0385 </r>
       <r>     6.3043    -0.2944  1176.0000 </r>
       <r>     6.4349    -0.0002  1176.0000 </r>
       <r>     6.5655    -0.0000  1176.0000 </r>
       <r>     6.6962    -0.0000  1176.0000 </r>
       <r>     6.8268     0.0000  1176.0000 </r>
       <r>     6.9574     0.0000  1176.0000 </r>
       <r>     7.0881     0.0000  1176.0000 </r>
       <r>     7.2187     0.0000  1176.0000 </r>
       <r>     7.3493     0.0000  1176.0000 </r>
       <r>     7.4799     0.0000  1176.0000 </r>
       <r>     7.6106     0.0000  1176.0000 </r>
       <r>     7.7412     0.0000  1176.0000 </r>
      </set>
     </set>
    </array>
   </total>
  </dos>
 </calculation>
 <structure name="finalpos" >
  <crystal>
   <varray name="basis" >
    <v>       9.97316200       0.15154800      -0.06938500 </v>
    <v>      -0.00168200      10.28915600       0.04718800 </v>
    <v>       0.05506500      -0.06835500      21.90153400 </v>
   </varray>
   <i name="volume">   2247.51255098 </i>
   <varray name="rec_basis" >
    <v>       0.10026708       0.00001755      -0.00025204 </v>
    <v>      -0.00147469       0.09718805       0.00030703 </v>
    <v>       0.00032083      -0.00020934       0.04565744 </v>
   </varray>
  </crystal>
  <varray name="positions" >
   <v>       0.08784623       0.03198740       0.49489191 </v>
   <v>       0.17545274       0.15610960       0.08972284 </v>
   <v>       0.01023956       0.00138427       0.16365644 </v>
   <v>       0.19927050       0.17824099       0.22692285 </v>
   <v>       0.02261553       0.03062008       0.29404131 </v>
   <v>       0.17176304       0.14501986       0.39115801 </v>
   <v>       0.01125523       0.36626934       0.01094378 </v>
   <v>       0.04171847       0.34225638       0.15939251 </v>
   <v>       0.04383836       0.35014018       0.31388441 </v>
   <v>       0.02405377       0.70325808       0.46468214 </v>
   <v>       0.18265180       0.54032318       0.07683212 </v>
   <v>       0.01798511       0.68643116       0.16612419 </v>
   <v>       0.19975794       0.51777881       0.23266937 </v>
   <v>       0.98970442       0.71166707       0.32462287 </v>
   <v>       0.18126889       0.53680059       0.38983640 </v>
   <v>       0.18112571       0.86907836       0.08105353 </v>
   <v>       0.17485313       0.83641630       0.23232601 </v>
   <v>       0.22778049       0.82764389       0.40419498 </v>
   <v>       0.33508538       0.99502681       0.00450636 </v>
   <v>       0.38221943       0.03464980       0.14793475 </v>
   <v>       0.35815467       0.02113645       0.32112206 </v>
   <v>       0.32167861       0.34253661       0.02011989 </v>
   <v>       0.36227078       0.31284052       0.14192716 </v>
   <v>       0.35412734       0.33195898       0.32753324 </v>
   <v>       0.34723832       0.70456938       0.00231946 </v>
   <v>       0.33841331       0.66970355       0.14536197 </v>
   <v>       0.35051094       0.69151733       0.30701061 </v>
   <v>       0.66432315       0.05939976       0.47720016 </v>
   <v>       0.56955413       0.17940714       0.04867677 </v>
   <v>       0.69260244       0.00793305       0.15681319 </v>
   <v>       0.51241641       0.18221142       0.25304036 </v>
   <v>       0.68090920       0.03216648       0.32763080 </v>
   <v>       0.51557339       0.19617183       0.39222980 </v>
   <v>       0.74848948       0.35100916       0.97861505 </v>
   <v>       0.66725532       0.35310261       0.15468465 </v>
   <v>       0.67292054       0.37560987       0.32196183 </v>
   <v>       0.73216289       0.66926652       0.47330631 </v>
   <v>       0.49495296       0.52384388       0.06847427 </v>
   <v>       0.67433578       0.68505984       0.15148080 </v>
   <v>       0.53277515       0.52346417       0.23200685 </v>
   <v>       0.70050529       0.66722793       0.30626139 </v>
   <v>       0.50970419       0.53869513       0.39671281 </v>
   <v>       0.53101417       0.87466161       0.07947360 </v>
   <v>       0.49733841       0.85928647       0.22029432 </v>
   <v>       0.56043932       0.84490640       0.40733744 </v>
   <v>       0.84122412       0.20949410       0.08362124 </v>
   <v>       0.84846741       0.19499002       0.24713734 </v>
   <v>       0.89497379       0.16189427       0.38560195 </v>
   <v>       0.85933175       0.53944730       0.08624489 </v>
   <v>       0.83534460       0.49669177       0.22996417 </v>
   <v>       0.84851833       0.51017983       0.39733426 </v>
   <v>       0.88594058       0.84869089       0.09897540 </v>
   <v>       0.82482304       0.84277802       0.23821553 </v>
   <v>       0.84215999       0.87811558       0.40280358 </v>
   <v>       0.74192622       0.65082383       0.97268173 </v>
   <v>       0.35796316       0.00513414       0.52483742 </v>
   <v>       0.10632719       0.83478683       0.60442704 </v>
   <v>       0.84832901       0.91639171       0.57250397 </v>
   <v>       0.35190720       0.66930689       0.52553988 </v>
   <v>       0.04723446       0.32148481       0.50408919 </v>
   <v>       0.64094428       0.37525569       0.50940302 </v>
   <v>       0.76206216       0.70902483       0.74819411 </v>
   <v>       0.29795876       0.32143337       0.47971065 </v>
   <v>       0.13617848       0.38793434       0.60426947 </v>
   <v>       0.70245898       0.53092304       0.61588768 </v>
   <v>       0.44591152       0.81437680       0.66957057 </v>
   <v>       0.65020766       0.10181008       0.63628373 </v>
   <v>       0.38875336       0.53487763       0.73775926 </v>
   <v>       0.57482563       0.83810762       0.54001651 </v>
   <v>       0.03674445       0.14902246       0.62714029 </v>
   <v>       0.37402576       0.21045569       0.68183381 </v>
   <v>       0.64180988       0.96758802       0.76170703 </v>
   <v>       0.00190698       0.40823311       0.74957436 </v>
   <v>       0.71939873       0.32722777       0.71639085 </v>
   <v>       0.96898679       0.14183496       0.76809007 </v>
   <v>       0.07526823       0.75404882       0.82005906 </v>
   <v>       0.51620073       0.76664065       0.89661175 </v>
   <v>       0.52157266       0.45186086       0.92484746 </v>
   <v>       0.37209762       0.10944372       0.83873580 </v>
   <v>       0.80503517       0.82332245       0.86063476 </v>
   <v>       0.14425092       0.08648361       0.93028721 </v>
   <v>       0.58489499       0.11789306       0.89976095 </v>
   <v>       0.90181143       0.33358075       0.87781837 </v>
   <v>       0.85381140       0.04750518       0.99919592 </v>
   <v>       0.06309521       0.70412259       0.96479254 </v>
   <v>       0.21092882       0.45337894       0.87766273 </v>
  </varray>
 </structure>
</modeling>
