unknown system                          
           1
     9.973162    0.151548   -0.069385
    -0.001682   10.289156    0.047188
     0.055065   -0.068355   21.901534
   Ta   Ce
    54    32
Direct configuration=     1
   0.08784623  0.03198740  0.49489191
   0.17545274  0.15610960  0.08972284
   0.01023956  0.00138427  0.16365644
   0.19927050  0.17824099  0.22692285
   0.02261553  0.03062008  0.29404131
   0.17176304  0.14501986  0.39115801
   0.01125523  0.36626934  0.01094378
   0.04171847  0.34225638  0.15939251
   0.04383836  0.35014018  0.31388441
   0.02405377  0.70325808  0.46468214
   0.18265180  0.54032318  0.07683212
   0.01798511  0.68643116  0.16612419
   0.19975794  0.51777881  0.23266937
   0.98970442  0.71166707  0.32462287
   0.18126889  0.53680059  0.38983640
   0.18112571  0.86907836  0.08105353
   0.17485313  0.83641630  0.23232601
   0.22778049  0.82764389  0.40419498
   0.33508538  0.99502681  0.00450636
   0.38221943  0.03464980  0.14793475
   0.35815467  0.02113645  0.32112206
   0.32167861  0.34253661  0.02011989
   0.36227078  0.31284052  0.14192716
   0.35412734  0.33195898  0.32753324
   0.34723832  0.70456938  0.00231946
   0.33841331  0.66970355  0.14536197
   0.35051094  0.69151733  0.30701061
   0.66432315  0.05939976  0.47720016
   0.56955413  0.17940714  0.04867677
   0.69260244  0.00793305  0.15681319
   0.51241641  0.18221142  0.25304036
   0.68090920  0.03216648  0.32763080
   0.51557339  0.19617183  0.39222980
   0.74848948  0.35100916  0.97861505
   0.66725532  0.35310261  0.15468465
   0.67292054  0.37560987  0.32196183
   0.73216289  0.66926652  0.47330631
   0.49495296  0.52384388  0.06847427
   0.67433578  0.68505984  0.15148080
   0.53277515  0.52346417  0.23200685
   0.70050529  0.66722793  0.30626139
   0.50970419  0.53869513  0.39671281
   0.53101417  0.87466161  0.07947360
   0.49733841  0.85928647  0.22029432
   0.56043932  0.84490640  0.40733744
   0.84122412  0.20949410  0.08362124
   0.84846741  0.19499002  0.24713734
   0.89497379  0.16189427  0.38560195
   0.85933175  0.53944730  0.08624489
   0.83534460  0.49669177  0.22996417
   0.84851833  0.51017983  0.39733426
   0.88594058  0.84869089  0.09897540
   0.82482304  0.84277802  0.23821553
   0.84215999  0.87811558  0.40280358
   0.74192622  0.65082383  0.97268173
   0.35796316  0.00513414  0.52483742
   0.10632719  0.83478683  0.60442704
   0.84832901  0.91639171  0.57250397
   0.35190720  0.66930689  0.52553988
   0.04723446  0.32148481  0.50408919
   0.64094428  0.37525569  0.50940302
   0.76206216  0.70902483  0.74819411
   0.29795876  0.32143337  0.47971065
   0.13617848  0.38793434  0.60426947
   0.70245898  0.53092304  0.61588768
   0.44591152  0.81437680  0.66957057
   0.65020766  0.10181008  0.63628373
   0.38875336  0.53487763  0.73775926
   0.57482563  0.83810762  0.54001651
   0.03674445  0.14902246  0.62714029
   0.37402576  0.21045569  0.68183381
   0.64180988  0.96758802  0.76170703
   0.00190698  0.40823311  0.74957436
   0.71939873  0.32722777  0.71639085
   0.96898679  0.14183496  0.76809007
   0.07526823  0.75404882  0.82005906
   0.51620073  0.76664065  0.89661175
   0.52157266  0.45186086  0.92484746
   0.37209762  0.10944372  0.83873580
   0.80503517  0.82332245  0.86063476
   0.14425092  0.08648361  0.93028721
   0.58489499  0.11789306  0.89976095
   0.90181143  0.33358075  0.87781837
   0.85381140  0.04750518  0.99919592
   0.06309521  0.70412259  0.96479254
   0.21092882  0.45337894  0.87766273
