lammpslib autogenerated data file

54 atoms
1 atom types

  0.00000000e+00   9.45012100e+00 xlo xhi
  0.00000000e+00   9.45012100e+00 ylo yhi
  0.00000000e+00   9.45012100e+00 zlo zhi
  0.00000000e+00   0.00000000e+00   0.00000000e+00 xy xz yz


Atoms 

   1    1   9.42896218e+00   4.43399700e-02   1.11511430e-01
   2    1   9.30500494e+00   3.55230000e-02   3.19005845e+00
   3    1   9.44246640e+00   7.07814000e-03   6.31533631e+00
   4    1   9.38346930e+00   3.18007912e+00   2.67532900e-02
   5    1   9.42630670e+00   3.14201403e+00   3.15200281e+00
   6    1   9.96988000e-03   3.16433522e+00   6.41465708e+00
   7    1   9.40970283e+00   6.36859719e+00   9.38755175e+00
   8    1   9.36695994e+00   6.15362584e+00   3.07955818e+00
   9    1   9.41614782e+00   6.33942467e+00   6.32473918e+00
  10    1   3.05388220e+00   9.43628602e+00   1.17502800e-01
  11    1   3.11122554e+00   9.44221125e+00   3.18061777e+00
  12    1   3.11391882e+00   5.51887100e-02   6.29486735e+00
  13    1   3.11678221e+00   3.14753290e+00   8.10442400e-02
  14    1   3.14536882e+00   3.11403222e+00   3.24841294e+00
  15    1   3.07461577e+00   3.13965150e+00   6.33369790e+00
  16    1   3.15155865e+00   6.28037086e+00   1.45153900e-02
  17    1   3.13864979e+00   6.34360162e+00   3.13535170e+00
  18    1   3.02979384e+00   6.36656542e+00   6.27807448e+00
  19    1   6.28148598e+00   9.41354903e+00   1.28436590e-01
  20    1   6.29093610e+00   6.39206200e-02   3.17278362e+00
  21    1   6.23784532e+00   5.85624000e-02   6.39359276e+00
  22    1   6.30450647e+00   3.15765398e+00   1.34220070e-01
  23    1   6.21697945e+00   3.18163839e+00   3.25939398e+00
  24    1   6.27126095e+00   3.22317167e+00   6.41521464e+00
  25    1   6.28802546e+00   6.31804850e+00   1.21131650e-01
  26    1   6.23136254e+00   6.34933785e+00   3.07562693e+00
  27    1   6.20919255e+00   6.24508411e+00   6.31199097e+00
  28    1   1.61409957e+00   1.47918019e+00   1.58937805e+00
  29    1   1.55979917e+00   1.58629731e+00   4.73202524e+00
  30    1   1.62190537e+00   1.57816076e+00   7.81883166e+00
  31    1   1.64069221e+00   4.61023208e+00   1.53948141e+00
  32    1   1.54817552e+00   4.65126451e+00   4.64066147e+00
  33    1   1.67180201e+00   4.72851924e+00   7.88179782e+00
  34    1   1.62359694e+00   7.76110087e+00   1.47988895e+00
  35    1   1.61613134e+00   7.84627481e+00   4.58711708e+00
  36    1   1.55690743e+00   7.87435112e+00   7.85750156e+00
  37    1   4.72867045e+00   1.50274879e+00   1.57651644e+00
  38    1   4.77140389e+00   1.58000353e+00   4.67828240e+00
  39    1   4.72862320e+00   1.56875789e+00   7.81691329e+00
  40    1   4.74485850e+00   4.69609588e+00   1.50354260e+00
  41    1   4.71999524e+00   4.74304408e+00   4.68444388e+00
  42    1   4.84689146e+00   4.72108200e+00   7.88888541e+00
  43    1   4.81073530e+00   7.86720683e+00   1.50210618e+00
  44    1   4.76481716e+00   7.94435762e+00   4.73729841e+00
  45    1   4.72318938e+00   7.79926046e+00   7.85584779e+00
  46    1   7.92886887e+00   1.61003602e+00   1.50038626e+00
  47    1   7.96715131e+00   1.48655128e+00   4.76802075e+00
  48    1   8.02175411e+00   1.61065972e+00   7.79670893e+00
  49    1   7.87329271e+00   4.76493056e+00   1.52431397e+00
  50    1   7.90791795e+00   4.68356502e+00   4.60758605e+00
  51    1   7.93894270e+00   4.80027401e+00   7.77275287e+00
  52    1   7.96811522e+00   7.92627954e+00   1.50038626e+00
  53    1   7.85419402e+00   7.91242566e+00   4.75161534e+00
  54    1   8.01981684e+00   7.87398257e+00   7.78690915e+00
