54
Lattice="9.450121 0.0 0.0 0.0 9.450121 0.0 0.0 0.0 9.450121" Properties=species:S:1:pos:R:3:forces:R:3 REF_energy=-581.6806102 stress="-0.04777978844915124 0.0013461936543070047 0.003775264175918251 0.0013461936543070047 -0.04701428607938904 -0.000545926078713631 0.003775264175918251 -0.000545926078713631 -0.04783508197849744" pbc="T T T"
Mo       9.42896218       0.04433997       0.11151143       0.65748785      -0.28864427      -1.84893675
Mo       9.30500494       0.03552300       3.19005845       2.09722726      -0.91296716      -0.29415063
Mo       9.44246640       0.00707814       6.31533631       0.65563088      -0.14080055      -0.18287363
Mo       9.38346930       3.18007912       0.02675329       1.26930592       0.01934864      -0.37475849
Mo       9.42630670       3.14201403       3.15200281       0.13167307      -0.51922075       0.00858145
Mo       0.00996988       3.16433522       6.41465708       0.09849057       0.32694928      -1.87384252
Mo       9.40970283       6.36859719       9.38755175       0.84183545      -1.07741626       0.56028755
Mo       9.36695994       6.15362584       3.07955818       1.12196976       2.03699782       0.52075135
Mo       9.41614782       6.33942467       6.32473918       0.45314683      -0.58908718      -1.53356622
Mo       3.05388220       9.43628602       0.11750280       1.26218024      -0.07754766      -1.90818053
Mo       3.11122554       9.44221125       3.18061777       0.35654818      -0.12618272      -0.18483900
Mo       3.11391882       0.05518871       6.29486735       0.31799464      -0.83850645       0.23754962
Mo       3.11678221       3.14753290       0.08104424       0.65487466      -0.56992470      -1.01376075
Mo       3.14536882       3.11403222       3.24841294      -0.02302530       0.26458353      -1.20195509
Mo       3.07461577       3.13965150       6.33369790       1.21681973       0.59359657      -0.17623466
Mo       3.15155865       6.28037086       0.01451539       0.11935181       0.00620064      -0.66749340
Mo       3.13864979       6.34360162       3.13535170       0.13038620      -0.85521977      -0.08963650
Mo       3.02979384       6.36656542       6.27807448       1.27727550      -0.81193946      -0.04174854
Mo       6.28148598       9.41354903       0.12843659       0.37568111       0.73119649      -2.27935764
Mo       6.29093610       0.06392062       3.17278362      -0.08718597      -0.67883705       0.27561103
Mo       6.23784532       0.05856240       6.39359276       0.83587697      -0.74660824      -0.65532741
Mo       6.30450647       3.15765398       0.13422007      -0.10816171      -0.32938912      -1.58450083
Mo       6.21697945       3.18163839       3.25939398       1.19255791      -0.36410461      -0.99206155
Mo       6.27126095       3.22317167       6.41521464       0.48539094      -1.02923028      -1.14432025
Mo       6.28802546       6.31804850       0.12113165       0.56474317      -0.18854431      -2.49661231
Mo       6.23136254       6.34933785       3.07562693       0.82305197      -0.24587757       1.44779196
Mo       6.20919255       6.24508411       6.31199097       0.97846454       1.38636365      -0.43454647
Mo       1.61409957       1.47918019       1.58937805      -0.69594514       1.06434159       0.31823786
Mo       1.55979917       1.58629731       4.73202524       0.22771166      -0.47301070      -0.21097413
Mo       1.62190537       1.57816076       7.81883166      -0.29229881      -0.16167634       1.33838967
Mo       1.64069221       4.61023208       1.53948141      -0.90048903       0.92359320       0.39266387
Mo       1.54817552       4.65126451       4.64066147       0.26514167       1.05226863       1.00030125
Mo       1.67180201       4.72851924       7.88179782      -0.92377615       0.03921539      -0.08401430
Mo       1.62359694       7.76110087       1.47988895      -0.57405831       0.73009968       1.28828048
Mo       1.61613134       7.84627481       4.58711708      -1.09154939       0.18694825       1.11196193
Mo       1.55690743       7.87435112       7.85750156       0.73275395       0.30540229      -0.21867905
Mo       4.72867045       1.50274879       1.57651644       0.04810667       0.90274334       0.19729354
Mo       4.77140389       1.58000353       4.67828240      -0.51906641       0.15524600       1.06219562
Mo       4.72862320       1.56875789       7.81691329       0.09976292       0.09937650       1.22406109
Mo       4.74485850       4.69609588       1.50354260      -0.41331322       0.10114042       1.43537446
Mo       4.71999524       4.74304408       4.68444388      -0.37946355       0.14588509       0.55012242
Mo       4.84689146       4.72108200       7.88888541      -1.55432716      -0.12345968       0.02631137
Mo       4.81073530       7.86720683       1.50210618      -1.29013495       0.12099855       1.48118600
Mo       4.76481716       7.94435762       4.73729841      -0.58697758      -0.65249706      -0.37260661
Mo       4.72318938       7.79926046       7.85584779       0.03432660       1.04680380       0.23848352
Mo       7.92886887       1.61003602       1.50038626      -1.00593155       0.03876320       1.38473542
Mo       7.96715131       1.48655128       4.76802075      -1.64740234       1.78712208      -0.42629715
Mo       8.02175411       1.61065972       7.79670893      -2.06375258      -0.28957061       1.59491331
Mo       7.87329271       4.76493056       1.52431397      -0.10774975      -0.58516623       0.20479846
Mo       7.90791795       4.68356502       4.60758605      -0.79124035       0.39378527       1.37974946
Mo       7.93894270       4.80027401       7.77275287      -0.57972698      -0.70047878       1.32862436
Mo       7.96811522       7.92627954       1.50038626      -1.23573625      -0.63053845       1.24688748
Mo       7.85419402       7.91242566       4.75161534      -0.03226226      -0.98386079      -0.75988474
Mo       8.01981684       7.87398257       7.78690915      -2.42219391       0.53133685       1.19601464
54
Lattice="9.450121 0.0 0.0 0.0 9.450121 0.0 0.0 0.0 9.450121" Properties=species:S:1:pos:R:3:forces:R:3 energy=-582.7571641 stress="-0.04110997448403162 0.0018024791789547003 -0.00047859267826360236 0.0018024791789547003 -0.041028266888064685 0.0009785874913198584 -0.00047859267826360236 0.0009785874913198584 -0.04284595038325004" pbc="T T T"
Mo       9.42250775       0.02583663       0.00575512       0.14398661      -0.26648345      -0.34833065
Mo       9.39842884       9.44835383       3.16467542       0.61104860      -0.01017906       0.08045818
Mo       9.44412962       0.05620932       6.31303993      -0.15022372      -0.85429931       0.14409937
Mo       9.44189939       3.21217173       0.09984053      -0.08432707      -0.80649182      -0.92153171
Mo       9.40802071       3.15812649       3.18490813       0.76957386      -0.31292265      -0.14344978
Mo       9.39787128       3.16658435       6.34134304       0.06408230       0.16334401      -0.38661177
Mo       9.38321414       6.30532863       9.44685126       1.33781968      -0.04907116       0.26032372
Mo       9.41106365       6.32371857       3.10734154       0.49889235      -0.32614441       1.09653837
Mo       9.43940456       6.29706923       6.37802841       0.42072697      -0.14314677      -1.13971677
Mo       3.06441909       0.07904081       0.08526844       1.11909953      -0.38499612      -1.03932996
Mo       3.18471913       0.02782116       3.13041873      -0.52138665       0.27430982       0.88235260
Mo       3.09469727       9.39626476       6.39116408       0.87796211       0.72935843      -0.91242048
Mo       3.06218886       3.20307126       9.34496950       1.21645683      -0.40799399       0.58832017
Mo       3.24777033       3.22133835       3.07370856      -1.16527163      -0.73885519       0.71645153
Mo       3.02878268       3.20070873       6.20540305       1.61694566      -0.87428960       0.94379474
Mo       3.12569367       6.44651344       0.04118363       0.46535466      -1.62926192      -0.66906499
Mo       3.14296849       6.41841823       3.08695763       0.33069256      -1.47863060       0.90995420
Mo       3.12677099       6.32249950       6.22397254       0.67912588      -0.35829642       1.04359409
Mo       6.30841882       9.35497718       9.33728656      -0.34940063       0.93166007       0.90523705
Mo       6.28623939       9.42914173       3.09496188       0.30301745       0.26201389       0.57123138
Mo       6.31337069       0.06610360       6.26904017      -0.32040574      -0.82456730      -0.13394399
Mo       6.26257629       3.09925223       0.08840588       0.24484070       0.18928087      -2.03139944
Mo       6.30104773       3.11367312       3.09235364       0.22672520       0.57928379       0.66973311
Mo       6.23852573       3.18659025       6.19822096       0.55366215      -0.44173118       1.56610390
Mo       6.35078372       6.25417513       0.09418936      -0.94566873       0.22587483      -1.35261467
Mo       6.27780988       6.40082211       3.15513080       0.32486309      -1.62089056       0.18828308
Mo       6.32552354       6.29317578       6.30409067      -0.43347149      -0.05031887       0.24431427
Mo       1.62033665       1.55924161       1.56675446      -0.77275522       0.44523356       0.61749764
Mo       1.54388517       1.50293779       4.81335298       0.27740963       0.73548818      -1.57783752
Mo       1.50097217       1.60238142       7.84032124       0.78128159      -0.23094807       0.86533057
Mo       1.64765695       4.71645144       1.63008917      -1.05689108       0.29911164      -0.55625572
Mo       1.63390702       4.67728069       4.73297025      -0.85349356       0.80686203      -0.48818160
Mo       1.63362352       4.73073057       7.87844303      -0.85205557       0.37484334       0.19541111
Mo       1.55256038       7.87293361       1.65148425      -0.00262270       0.37155149      -0.74841715
Mo       1.66610358       7.85177478       4.73567299      -1.28615731       0.18393966       0.17908474
Mo       1.61706691       7.85166138       7.96493053      -0.87046362       0.51489937      -0.76630237
Mo       4.78996393       1.60167266       1.61133068      -0.99921405      -0.79812814      -1.04967457
Mo       4.71974953       1.55627428       4.70005548      -0.23541607      -0.15900062       0.13046592
Mo       4.74736279       1.47871713       7.78961189      -0.70213274       1.38370662       1.12521413
Mo       4.70998756       4.69458386       1.47503159       0.35191070       0.72552124       1.41137560
Mo       4.81106605       4.66280310       4.74844955      -1.03990196       1.12829432      -0.95260438
Mo       4.75565999       4.79388573       7.91078134      -0.18565464      -0.91773789      -0.65082748
Mo       4.75035847       7.88598422       1.58887719      -0.10413552       0.26145231      -0.47858543
Mo       4.78520107       7.83096562       4.73098573      -0.43315413       0.64442553       0.05027690
Mo       4.78588148       7.85673610       7.88736394      -0.68629558      -0.09282567      -0.24081384
Mo       7.83738225       1.44013229       1.49983815       0.75319429       1.29639606       0.93486227
Mo       7.86083745       1.57608173       4.69217408       0.06686611      -0.11423751      -0.02473697
Mo       7.86547746       1.59999999       7.84760728      -0.06602489      -0.28724655       0.24989505
Mo       7.88137256       4.69185277       1.59610654      -0.02282042      -0.05025905       0.17650396
Mo       7.87805557       4.71167913       4.68156159       0.32063684       0.25864757       0.45093951
Mo       7.91835089       4.67322659       7.94851567      -0.57907545       0.26838948      -0.74547258
Mo       7.90902362       7.81443736       1.54232590      -0.37531617       0.62279356       0.57280680
Mo       7.89658726       7.88313029       4.84387687       0.33437998      -0.14888074      -1.64717337
Mo       7.87153499       7.80368312       7.81109201       0.40318100       0.70115299       1.23484325
54
Lattice="9.450121 0.0 0.0 0.0 9.450121 0.0 0.0 0.0 9.450121" Properties=species:S:1:pos:R:3:forces:R:3 energy=-582.92646384 stress="-0.040299845324019354 0.0020368915371954976 -0.001044042197522996 0.0020368915371954976 -0.04109033869632159 0.0005928996763950283 -0.001044042197522996 0.0005928996763950283 -0.04248291300494303" pbc="T T T"
Mo       0.00994153       0.07166027       9.42790377      -0.32522092      -0.77200039       0.23552645
Mo       9.40116937       0.01265371       3.21072586       0.43412903      -0.71187242      -0.41295853
Mo       9.41382309       0.01498789       6.33951917       0.44385440       0.09486848      -0.23337318
Mo       9.38655004       3.16461872       0.12890910       0.79008670      -0.25778807      -1.93416286
Mo       9.37043758       3.11146179       3.12833026       0.91213867       0.09777416       0.92274860
Mo       9.39668057       3.14002951       6.25963730       0.37439446      -0.09686351       0.56757791
Mo       0.04114583       6.39669240       9.38698474      -0.27157122      -1.22054944       0.50206704
Mo       0.02431516       6.31505281       3.13322542      -0.02755820      -0.33003415       0.17726758
Mo       9.34343858       6.35490397       6.27007968       1.39374083      -1.18221057       0.62426575
Mo       3.12277358       0.02027051       0.04876262       0.26027235      -0.43024457      -1.15337395
Mo       3.11306831       0.00886421       3.10677453       0.43250847      -0.34742324       0.86398528
Mo       3.17868050       0.06912764       6.24283498      -0.29036366      -0.43480797       0.89750464
Mo       3.10387334       3.13158110       9.35147119       0.28805439       0.20008751       1.29542912
Mo       3.11915419       3.19518986       3.16958948       0.33553780      -0.69363135      -0.06264414
Mo       3.10221012       3.25632269       6.33038090       0.32686797      -0.91784178      -0.47906243
Mo       3.17709288       6.35969518       9.40411781      -0.02328038      -1.01414604       0.28703472
Mo       3.16076307       6.34846844       3.17356798       0.03928686      -0.70333004      -0.46723022
Mo       3.13042818       6.37356796       6.23415032       0.00605302      -0.82668858       1.02232906
Mo       6.24752224       9.43096560       0.05826945       0.87480206       0.26249308      -1.03261048
Mo       6.24334529       9.44167259       3.16250189       0.47607630       0.29403508      -0.11808420
Mo       6.26832196       0.09203473       6.27824459       0.37225072      -0.72391634       0.66443570
Mo       6.26131942       3.14486797       0.09860256       0.31560632      -0.14331090      -1.38084318
Mo       6.29154091       3.26520581       3.06901185      -0.16851362      -1.31903762       1.28363888
Mo       6.24809870       3.25205124       6.29600136       0.67805038      -1.44914157      -0.32379496
Mo       6.35721925       6.29628487       9.40766161       0.09415504      -0.23320107       0.36496828
Mo       6.30375991       6.38535226       3.09613369       0.49655690      -0.83592751       0.65598453
Mo       6.23591750       6.32913349       6.31803905       1.26480651      -0.19193182      -0.55869394
Mo       1.54248655       1.43758076       1.63265015       0.27476009       1.31576174      -0.71292931
Mo       1.59146653       1.50077372       4.70182265      -0.38497003       0.96151370       0.41943100
Mo       1.57208433       1.52732856       7.84205061       0.02824302       0.72165821       0.34613120
Mo       1.60040634       4.55580883       1.62703678      -0.05670954       1.70461114      -0.37344940
Mo       1.55483786       4.67751694       4.79639946       0.27913638       0.48914035      -0.80437631
Mo       1.58418993       4.76331459       7.94248650      -0.11259164      -0.51974081      -0.66949270
Mo       1.59408421       7.80276646       1.58086349       0.45895086       0.26596622      -0.03680805
Mo       1.58281022       7.83989598       4.76723639       0.00089473       0.38500963      -0.70174627
Mo       1.60533930       7.85113218       7.84626536       0.08814141       0.69019845       0.27025887
Mo       4.67641128       1.50782351       1.56480774       0.30908360       0.61177678       0.40094703
Mo       4.73648570       1.63239500       4.73245049      -0.37998309      -0.23426124      -0.43348504
Mo       4.78164782       1.56428798       7.87387862      -1.11343518       0.07088004       0.18489850
Mo       4.74410249       4.69421531       1.56976905      -0.46844094       0.48509892      -0.05515596
Mo       4.79486854       4.73270565       4.74962136      -1.12664881       0.54543876      -0.65713286
Mo       4.83898171       4.68954695       7.88702374      -1.67251310       0.52425463       0.18124804
Mo       4.81823869       7.79052855       1.50393006      -1.08732247       0.83003423       0.84965880
Mo       4.75749332       7.88688198       4.77493824      -0.31312095       0.11457990      -1.35085932
Mo       4.82027992       7.80849323       7.81292534      -1.31419556       1.14711186       0.93795175
Mo       7.87332106       1.52363356       1.58736517      -0.52323849       0.34334786       0.28158035
Mo       7.83291234       1.47080738       4.74579407       0.20041449       1.45979709      -0.42524627
Mo       7.82510654       1.62850155       7.89949790       0.50831322      -0.81060082       0.05968681
Mo       7.94669180       4.72675207       1.55711534      -0.73976346       0.44489508      -0.14286316
Mo       7.90603738       4.70975130       4.65512960      -0.44689843       0.19180191       0.35936464
Mo       7.87610885       4.60082921       7.79576392       0.50634793       1.84178733       1.10081161
Mo       7.99438656       7.88508646       1.57575098      -1.19799706      -0.17101809       0.15659933
Mo       7.92781991       7.83535047       4.84458563      -1.05505791       0.51936845      -1.75673827
Mo       7.89726767       7.90152967       7.87974714      -0.16412024      -0.04177068       0.36378354
54
Lattice="9.450121 0.0 0.0 0.0 9.450121 0.0 0.0 0.0 9.450121" Properties=species:S:1:pos:R:3:forces:R:3 energy=-582.71802389 stress="-0.04200953822830868 0.0005187942385434165 -0.00013118403880781434 0.0005187942385434165 -0.03994951565829265 0.0009282309956922323 -0.00013118403880781434 0.0009282309956922323 -0.04198851058406357" pbc="T T T"
Mo       0.01460989       0.04224204       9.38995208      -0.85596150      -0.05121694       0.49778325
Mo       9.43337539       0.04882878       3.08271452       0.08142582      -0.60082611       0.65468821
Mo       9.44471553       9.39905255       6.33011630       0.11061720       0.51830436      -0.87117134
Mo       0.01370268       3.25104953       0.00481011      -0.23872765      -0.87952997      -0.20267657
Mo       9.37594700       3.14319530       3.12558972       0.72945895       0.05933442       0.24234055
Mo       9.44210730       3.17885060       6.24931777       0.57599458      -0.68717537       0.39752127
Mo       9.41782049       6.35341085       0.04597484      -0.02526415      -0.41366074      -0.63771786
Mo       9.34387329       6.29860960       3.20008502       0.92986846       0.57756407      -0.90259670
Mo       0.01583840       6.21930418       6.22749744      -0.18768837       0.68316647       1.03811351
Mo       3.06465534       0.03266907       0.09037151       0.68515223      -0.37842376      -1.19216150
Mo       3.19673968       9.44610470       3.14906382      -0.67260133       0.00344836       0.35295940
Mo       3.10631147       9.43363999       6.34089889       0.11234193       0.18410096      -0.11024009
Mo       3.14450886       3.14251489       9.36080791       0.06311869       0.10279699       1.27684556
Mo       3.15321242       3.08483135       3.10383554      -0.38637017       0.68788305       0.16097171
Mo       3.17361524       3.18782822       6.26089416      -0.13915415      -0.52059542       0.25924488
Mo       3.19098456       6.36080084       0.07521351      -1.13815773      -0.44351495      -0.44455419
Mo       3.15191776       6.29843950       3.20419583      -0.10673328      -0.06904866      -1.01309923
Mo       3.09488628       6.31287928       6.25681171       0.49431969      -0.34095061       1.07851632
Mo       6.16624175       9.37948135       9.36016530       2.08318041       0.49687566       0.50067792
Mo       6.30762501       0.07662158       3.11573324       0.72694037      -1.12332018      -0.00959171
Mo       6.26392765       0.04111748       6.22246052       0.92126347      -1.14831407       1.25662170
Mo       6.23584189       3.06332287       0.04281850       1.20618883       0.87006108      -0.52968431
Mo       6.16860428       3.13104244       3.20567950       2.06584374       0.37928527      -0.54882708
Mo       6.33783705       3.10318348       6.33683534      -0.24211385       0.73795806      -0.03963642
Mo       6.18115404       6.23304466       0.02690449       2.03541236       0.44078279      -0.42175661
Mo       6.21025097       6.30453482       3.19781700       1.22048866       0.38982041      -0.09010720
Mo       6.29629432       6.31531741       6.36225616       0.04105602      -0.27613421      -0.36476229
Mo       1.57031716       1.60184276       1.53048490       0.47685280       0.23680770       0.61444609
Mo       1.64066386       1.54036972       4.74362999      -0.36285832       0.30177433      -0.56955714
Mo       1.56544089       1.62113046       7.85341911       0.51126706      -0.32252066      -0.08931656
Mo       1.53334828       4.81033839       1.59569073       1.14785453      -0.74546862       0.20089029
Mo       1.59157048       4.70793688       4.64374221       0.18122911      -0.30242639       1.04009156
Mo       1.64243103       4.72052444       7.99999048      -0.39880888       0.60026610      -1.59485228
Mo       1.54204239       7.93270562       1.58348118       0.40099903      -0.41289263       0.08340635
Mo       1.63447403       7.79903366       4.63752403      -0.81502398       1.12808691       0.94865557
Mo       1.47571200       7.87028757       7.89990425       1.65140286      -0.23504083      -0.47398346
Mo       4.78652409       1.52483372       1.58082569      -0.99265890       0.77297732      -0.09766686
Mo       4.84717496       1.54803377       4.76452421      -1.92843402       0.63324460      -0.45960182
Mo       4.79879979       1.49365777       7.86386149      -1.46590149       0.86185331      -0.03080243
Mo       4.80677570       4.73344276       1.56639536      -1.48929895      -0.38112587       0.67479349
Mo       4.79521820       4.73556903       4.76326734      -1.16330044      -0.11341369       0.03135365
Mo       4.73451062       4.68005902       7.92805616       0.05600647       0.20746092      -0.82730575
Mo       4.81622582       7.91611121       1.60848620      -1.64955918      -0.57756205       0.14934132
Mo       4.70008383       7.95006549       4.78871652       0.58389121      -1.03616943      -0.67154587
Mo       4.69157872       7.83522762       7.89141804      -0.24416156       0.07884918      -0.19475573
Mo       7.95865565       1.64213808       1.45888133      -1.09264031      -0.67438977       1.19246862
Mo       7.90953392       1.55284388       4.75461103       0.24013057       0.15716877      -0.78031184
Mo       7.91199096       1.57036441       7.86315273      -0.12884227       0.04075141      -0.05447693
Mo       7.93732673       4.76841766       1.68089302      -1.36766016      -0.42496708      -1.45346503
Mo       7.85337186       4.70181320       4.70189825       0.13175107      -0.04007315       0.52240339
Mo       7.95604742       4.66289760       7.83964083      -0.96336353       1.00052683       0.61088487
Mo       7.83432986       7.89072818       1.44146476       0.31307946       0.21012540       1.62282045
Mo       7.93263002       7.85201104       4.77796228      -0.82399741       0.31700997      -0.88783699
Mo       7.91506225       7.88389575       7.84737103      -0.89785399      -0.47952355       0.15622184
54
Lattice="9.450121 0.0 0.0 0.0 9.450121 0.0 0.0 0.0 9.450121" Properties=species:S:1:pos:R:3:forces:R:3 energy=-582.41805119 stress="-0.04469658280511092 0.004546221624656477 -0.00026485843975685607 0.004546221624656477 -0.045400075781707475 0.00023082973200254053 -0.00026485843975685607 0.00023082973200254053 -0.04598542947356931" pbc="T T T"
Mo       9.44087878       0.05044475       0.03565531       0.49169936      -0.75974203      -0.60946974
Mo       9.37454838       0.08886894       3.17986177       0.68402338      -1.36448117       0.05798027
Mo       9.38236363       0.00193727       6.30478998       1.25668428      -0.06515845       0.03586036
Mo       9.38844006       3.18613665       0.03803674       0.72719021      -0.79978153      -0.73529657
Mo       9.39543315       3.18364181       3.12470141       0.51791260      -0.60005195       0.44893305
Mo       9.36211202       3.24465179       6.21532568       1.08361848      -1.30011059       1.25479841
Mo       9.38085161       6.32395482       0.04681590       1.48198909      -0.66698291      -0.64375089
Mo       0.01949560       6.29554776       3.14339375      -0.07318075       0.22997980       0.28601335
Mo       0.04558738       6.31664043       6.31212327      -0.41555887      -0.27622919       0.05028973
Mo       3.10720923       0.09238438       0.04139153       0.63604076      -0.89201738      -0.73570666
Mo       3.09100228       9.44293891       3.16897523       0.53977037       0.12808962      -0.35111288
Mo       3.09801427       9.43406524       6.25277651       0.49967923       0.31245349       1.11793212
Mo       3.13691097       3.26374104       9.44324131      -0.51470701      -1.09574769       0.16524294
Mo       3.09274110       3.14379065       3.13573915       1.19929920      -0.32242424       0.30258195
Mo       3.08841294       3.23549463       6.34004838       0.32117348      -1.59193023      -0.63802491
Mo       3.11663101       6.45195671       9.43913051       0.37021000      -1.78362852       0.47553443
Mo       3.21497841       6.35239969       3.19925341      -0.46354004      -0.70339735      -1.02944801
Mo       3.12906736       6.32198920       6.21976724       0.58851126      -0.28413208       1.18374100
Mo       6.32721511       0.03316992       9.43168381      -0.26491475      -0.69136662      -0.25458282
Mo       6.20120720       0.08780107       3.16541253       1.43536711      -1.33519242      -0.70763360
Mo       6.27909510       0.05282618       6.22604212       0.08493370      -0.73031663       1.43121995
Mo       6.14982689       3.16154743       9.40712295       2.25824967      -0.46001970       0.16543296
Mo       6.29112510       3.13222371       3.16990134       0.01345022       0.21582493      -0.23001456
Mo       6.19510242       3.17034549       6.33111801       1.05566290       0.09533284      -0.27964183
Mo       6.25316397       6.31850210       9.39308952       0.81009037      -0.39185489       0.64415720
Mo       6.25986410       6.31396604       3.15513080       1.18282152      -0.23178340      -0.29303229
Mo       6.24690799       6.42085636       6.32684656       1.10442789      -1.78198655      -0.47910862
Mo       1.62929536       1.55608527       1.60515030      -0.80252659       0.52815398       0.09382784
Mo       1.61811587       1.50741715       4.74833615      -0.86005918       0.85125751       0.06957767
Mo       1.53963261       1.53548401       7.97702669       0.19575336       0.58443094      -1.22190168
Mo       1.65552890       4.66621460       1.63471028      -0.62834823       1.28625546      -0.94057213
Mo       1.64634338       4.66753761       4.65810639      -0.84652055       0.61084094       0.67504549
Mo       1.60338313       4.67219652       7.81859541      -0.62088967       0.96141724       0.84554369
Mo       1.56361702       7.91939040       1.61552654       0.45842701      -0.64635166       0.00746538
Mo       1.61968459       7.80410837       4.76805855      -0.67293134       0.75643836      -0.75492108
Mo       1.65149370       7.81386090       7.91477874      -0.73949710       0.88417563      -0.41829749
Mo       4.73594704       1.54394187       1.49440433      -0.14395494       0.23222167       1.02706710
Mo       4.76114106       1.48603153       4.72062839      -1.03571519       1.71458439      -0.15575253
Mo       4.70722812       1.56658436       7.85404281      -0.38897151      -0.23719077      -0.09376044
Mo       4.83262178       4.64939338       1.52401156      -1.27386767       1.08806344       0.93341050
Mo       4.74502861       4.67487091       4.73321595       0.00553942       0.64682805      -0.31685634
Mo       4.68915004       4.70493174       7.86863380       0.29045148       0.75346859      -0.20504172
Mo       4.78436946       7.82478524       1.58900950      -0.46705571       0.76959626      -0.09367196
Mo       4.79846904       7.92614724       4.72934140      -1.01430592      -0.94468663      -0.25431650
Mo       4.81453425       7.81970107       7.86337953      -1.11473076       1.37521179       0.20855533
Mo       7.93430269       1.46134781       1.55040575      -1.16623298       1.67865370       0.44293213
Mo       7.86498605       1.57947432       4.81443029       0.08484584       0.34028914      -1.74510155
Mo       7.87712946       1.46879451       7.79089711      -0.32022102       1.49224117       1.28684996
Mo       7.92260344       4.63812884       1.58504990      -0.74916592       0.84783268       0.27726585
Mo       7.93514375       4.76312559       4.78489867      -1.08024762      -0.21714028      -0.72433511
Mo       7.92217819       4.65540366       7.94195729      -0.94665175       0.77481382      -0.78947775
Mo       7.97699834       7.81693219       1.46625242      -1.63839079       0.42375522       1.67492372
Mo       7.87918014       7.83724050       4.73359396       0.18491781       0.57588128      -0.64159132