   2   2   0   0
  0.1831974E+02  0.3321364E-09  0.3321364E-09  0.3321364E-09  0.5000000E-15
  1.000000000000000E-004
  CAR 
 unknown system                          
     17.35021670    -31.11440345  301      5.33197187      1.00000000
    -31.114  0.0000E+00  0.0000E+00
    -30.953  0.0000E+00  0.0000E+00
    -30.791  0.0000E+00  0.0000E+00
    -30.630  0.0000E+00  0.0000E+00
    -30.468  0.0000E+00  0.0000E+00
    -30.307  0.0000E+00  0.0000E+00
    -30.145  0.0000E+00  0.0000E+00
    -29.984  0.0000E+00  0.0000E+00
    -29.822 -0.1934E-36 -0.3125E-37
    -29.660 -0.7353E-25 -0.1188E-25
    -29.499 -0.1514E-15 -0.2446E-16
    -29.337 -0.1863E-08 -0.3010E-09
    -29.176 -0.1444E-03 -0.2333E-04
    -29.014 -0.5853E-01 -0.9479E-02
    -28.853  0.1091E+01  0.1668E+00
    -28.691  0.9652E+01  0.1726E+01
    -28.530  0.1002E+02  0.3345E+01
    -28.368  0.7550E+01  0.4565E+01
    -28.207  0.1089E+02  0.6324E+01
    -28.045  0.1193E+02  0.8252E+01
    -27.883  0.1537E+02  0.1073E+02
    -27.722  0.8134E+01  0.1205E+02
    -27.560 -0.2993E+00  0.1200E+02
    -27.399 -0.2892E-02  0.1200E+02
    -27.237 -0.8419E-07  0.1200E+02
    -27.076 -0.1313E-13  0.1200E+02
    -26.914  0.0000E+00  0.1200E+02
    -26.753  0.0000E+00  0.1200E+02
    -26.591  0.0000E+00  0.1200E+02
    -26.429  0.0000E+00  0.1200E+02
    -26.268  0.0000E+00  0.1200E+02
    -26.106  0.0000E+00  0.1200E+02
    -25.945  0.0000E+00  0.1200E+02
    -25.783  0.0000E+00  0.1200E+02
    -25.622  0.0000E+00  0.1200E+02
    -25.460  0.0000E+00  0.1200E+02
    -25.299  0.0000E+00  0.1200E+02
    -25.137  0.0000E+00  0.1200E+02
    -24.976  0.0000E+00  0.1200E+02
    -24.814  0.0000E+00  0.1200E+02
    -24.652  0.0000E+00  0.1200E+02
    -24.491  0.0000E+00  0.1200E+02
    -24.329  0.0000E+00  0.1200E+02
    -24.168  0.0000E+00  0.1200E+02
    -24.006  0.0000E+00  0.1200E+02
    -23.845  0.0000E+00  0.1200E+02
    -23.683  0.0000E+00  0.1200E+02
    -23.522  0.0000E+00  0.1200E+02
    -23.360  0.0000E+00  0.1200E+02
    -23.199  0.0000E+00  0.1200E+02
    -23.037  0.0000E+00  0.1200E+02
    -22.875  0.0000E+00  0.1200E+02
    -22.714  0.0000E+00  0.1200E+02
    -22.552  0.0000E+00  0.1200E+02
    -22.391  0.0000E+00  0.1200E+02
    -22.229  0.0000E+00  0.1200E+02
    -22.068  0.0000E+00  0.1200E+02
    -21.906  0.0000E+00  0.1200E+02
    -21.745  0.0000E+00  0.1200E+02
    -21.583  0.0000E+00  0.1200E+02
    -21.421  0.0000E+00  0.1200E+02
    -21.260  0.0000E+00  0.1200E+02
    -21.098  0.0000E+00  0.1200E+02
    -20.937  0.0000E+00  0.1200E+02
    -20.775  0.0000E+00  0.1200E+02
    -20.614  0.0000E+00  0.1200E+02
    -20.452  0.0000E+00  0.1200E+02
    -20.291  0.0000E+00  0.1200E+02
    -20.129  0.0000E+00  0.1200E+02
    -19.968  0.0000E+00  0.1200E+02
    -19.806  0.0000E+00  0.1200E+02
    -19.644  0.0000E+00  0.1200E+02
    -19.483  0.0000E+00  0.1200E+02
    -19.321  0.0000E+00  0.1200E+02
    -19.160  0.0000E+00  0.1200E+02
    -18.998  0.0000E+00  0.1200E+02
    -18.837  0.0000E+00  0.1200E+02
    -18.675  0.0000E+00  0.1200E+02
    -18.514  0.0000E+00  0.1200E+02
    -18.352  0.0000E+00  0.1200E+02
    -18.191  0.0000E+00  0.1200E+02
    -18.029  0.0000E+00  0.1200E+02
    -17.867  0.0000E+00  0.1200E+02
    -17.706  0.0000E+00  0.1200E+02
    -17.544  0.0000E+00  0.1200E+02
    -17.383  0.0000E+00  0.1200E+02
    -17.221  0.0000E+00  0.1200E+02
    -17.060  0.0000E+00  0.1200E+02
    -16.898  0.0000E+00  0.1200E+02
    -16.737  0.0000E+00  0.1200E+02
    -16.575  0.0000E+00  0.1200E+02
    -16.413  0.0000E+00  0.1200E+02
    -16.252  0.0000E+00  0.1200E+02
    -16.090  0.0000E+00  0.1200E+02
    -15.929  0.0000E+00  0.1200E+02
    -15.767  0.0000E+00  0.1200E+02
    -15.606  0.0000E+00  0.1200E+02
    -15.444  0.0000E+00  0.1200E+02
    -15.283  0.0000E+00  0.1200E+02
    -15.121  0.0000E+00  0.1200E+02
    -14.960  0.0000E+00  0.1200E+02
    -14.798  0.0000E+00  0.1200E+02
    -14.636  0.0000E+00  0.1200E+02
    -14.475  0.0000E+00  0.1200E+02
    -14.313  0.0000E+00  0.1200E+02
    -14.152  0.0000E+00  0.1200E+02
    -13.990  0.0000E+00  0.1200E+02
    -13.829  0.0000E+00  0.1200E+02
    -13.667  0.0000E+00  0.1200E+02
    -13.506  0.0000E+00  0.1200E+02
    -13.344  0.0000E+00  0.1200E+02
    -13.182  0.0000E+00  0.1200E+02
    -13.021  0.0000E+00  0.1200E+02
    -12.859  0.0000E+00  0.1200E+02
    -12.698  0.0000E+00  0.1200E+02
    -12.536  0.0000E+00  0.1200E+02
    -12.375  0.0000E+00  0.1200E+02
    -12.213  0.0000E+00  0.1200E+02
    -12.052  0.0000E+00  0.1200E+02
    -11.890  0.0000E+00  0.1200E+02
    -11.729  0.0000E+00  0.1200E+02
    -11.567  0.0000E+00  0.1200E+02
    -11.405  0.0000E+00  0.1200E+02
    -11.244  0.0000E+00  0.1200E+02
    -11.082  0.0000E+00  0.1200E+02
    -10.921  0.0000E+00  0.1200E+02
    -10.759  0.0000E+00  0.1200E+02
    -10.598  0.0000E+00  0.1200E+02
    -10.436  0.0000E+00  0.1200E+02
    -10.275  0.0000E+00  0.1200E+02
    -10.113  0.0000E+00  0.1200E+02
     -9.952  0.0000E+00  0.1200E+02
     -9.790  0.0000E+00  0.1200E+02
     -9.628  0.0000E+00  0.1200E+02
     -9.467  0.0000E+00  0.1200E+02
     -9.305  0.0000E+00  0.1200E+02
     -9.144  0.0000E+00  0.1200E+02
     -8.982  0.0000E+00  0.1200E+02
     -8.821  0.0000E+00  0.1200E+02
     -8.659  0.0000E+00  0.1200E+02
     -8.498  0.0000E+00  0.1200E+02
     -8.336  0.0000E+00  0.1200E+02
     -8.174  0.0000E+00  0.1200E+02
     -8.013  0.0000E+00  0.1200E+02
     -7.851  0.0000E+00  0.1200E+02
     -7.690  0.0000E+00  0.1200E+02
     -7.528  0.0000E+00  0.1200E+02
     -7.367  0.0000E+00  0.1200E+02
     -7.205  0.0000E+00  0.1200E+02
     -7.044  0.0000E+00  0.1200E+02
     -6.882  0.0000E+00  0.1200E+02
     -6.721  0.0000E+00  0.1200E+02
     -6.559  0.0000E+00  0.1200E+02
     -6.397  0.0000E+00  0.1200E+02
     -6.236  0.0000E+00  0.1200E+02
     -6.074  0.0000E+00  0.1200E+02
     -5.913  0.0000E+00  0.1200E+02
     -5.751  0.0000E+00  0.1200E+02
     -5.590  0.0000E+00  0.1200E+02
     -5.428  0.0000E+00  0.1200E+02
     -5.267  0.0000E+00  0.1200E+02
     -5.105  0.0000E+00  0.1200E+02
     -4.944  0.0000E+00  0.1200E+02
     -4.782  0.0000E+00  0.1200E+02
     -4.620  0.0000E+00  0.1200E+02
     -4.459  0.0000E+00  0.1200E+02
     -4.297  0.0000E+00  0.1200E+02
     -4.136  0.0000E+00  0.1200E+02
     -3.974  0.0000E+00  0.1200E+02
     -3.813  0.0000E+00  0.1200E+02
     -3.651  0.0000E+00  0.1200E+02
     -3.490  0.0000E+00  0.1200E+02
     -3.328 -0.5960E-31  0.1200E+02
     -3.166 -0.1407E-20  0.1200E+02
     -3.005 -0.1626E-12  0.1200E+02
     -2.843 -0.9058E-07  0.1200E+02
     -2.682 -0.1759E-03  0.1200E+02
     -2.520  0.4270E-02  0.1200E+02
     -2.359  0.1005E-01  0.1200E+02
     -2.197  0.6740E-01  0.1201E+02
     -2.036  0.1185E+00  0.1203E+02
     -1.874  0.7731E-01  0.1204E+02
     -1.713  0.6463E-01  0.1206E+02
     -1.551  0.6554E-01  0.1207E+02
     -1.389  0.2786E+00  0.1211E+02
     -1.228  0.2711E+00  0.1215E+02
     -1.066  0.4259E-01  0.1216E+02
     -0.905  0.9976E-01  0.1218E+02
     -0.743  0.2019E+00  0.1221E+02
     -0.582  0.2767E+00  0.1225E+02
     -0.420  0.3108E+00  0.1231E+02
     -0.259  0.2471E+00  0.1235E+02
     -0.097  0.3169E+00  0.1240E+02
      0.065  0.4978E+00  0.1248E+02
      0.226  0.1585E+00  0.1250E+02
      0.388  0.7223E-01  0.1251E+02
      0.549  0.5214E+00  0.1260E+02
      0.711  0.8073E+00  0.1273E+02
      0.872  0.5178E+00  0.1281E+02
      1.034  0.8730E+00  0.1295E+02
      1.195  0.1249E+01  0.1316E+02
      1.357  0.1076E+01  0.1333E+02
      1.518  0.7196E+00  0.1345E+02
      1.680  0.1659E+01  0.1371E+02
      1.842  0.1787E+01  0.1400E+02
      2.003  0.1570E+01  0.1426E+02
      2.165  0.1832E+01  0.1455E+02
      2.326  0.9481E+00  0.1470E+02
      2.488  0.2460E+01  0.1510E+02
      2.649  0.2151E+01  0.1545E+02
      2.811  0.2334E+01  0.1583E+02
      2.972  0.1830E+01  0.1612E+02
      3.134  0.4273E+00  0.1619E+02
      3.295  0.2198E+00  0.1623E+02
      3.457  0.1380E+01  0.1645E+02
      3.619  0.1015E+01  0.1661E+02
      3.780  0.8689E+00  0.1675E+02
      3.942  0.3597E+01  0.1734E+02
      4.103  0.4833E+01  0.1812E+02
      4.265  0.3589E+01  0.1870E+02
      4.426  0.2703E+01  0.1913E+02
      4.588  0.2991E+01  0.1962E+02
      4.749  0.2141E+01  0.1996E+02
      4.911  0.2813E+01  0.2042E+02
      5.073  0.5062E+01  0.2123E+02
      5.234  0.2927E+01  0.2171E+02
      5.396  0.2643E+01  0.2213E+02
      5.557  0.2257E+01  0.2250E+02
      5.719  0.2382E+01  0.2288E+02
      5.880  0.1286E+01  0.2309E+02
      6.042  0.1107E+01  0.2327E+02
      6.203  0.1388E+01  0.2349E+02
      6.365  0.4588E+00  0.2357E+02
      6.526  0.7163E+00  0.2368E+02
      6.688  0.6954E+00  0.2380E+02
      6.850  0.2834E+00  0.2384E+02
      7.011  0.8735E+00  0.2398E+02
      7.173  0.8948E+00  0.2413E+02
      7.334  0.1066E+01  0.2430E+02
      7.496  0.8961E+00  0.2444E+02
      7.657  0.1410E+01  0.2467E+02
      7.819  0.2269E+01  0.2504E+02
      7.980  0.1088E+01  0.2521E+02
      8.142  0.1565E+01  0.2547E+02
      8.303  0.1382E+01  0.2569E+02
      8.465  0.2265E+01  0.2606E+02
      8.627  0.1785E+01  0.2634E+02
      8.788  0.1576E+01  0.2660E+02
      8.950  0.2936E+01  0.2707E+02
      9.111  0.2972E+01  0.2755E+02
      9.273  0.1670E+01  0.2782E+02
      9.434  0.1975E+01  0.2814E+02
      9.596  0.2248E+01  0.2851E+02
      9.757  0.2726E+01  0.2895E+02
      9.919  0.2210E+01  0.2930E+02
     10.081  0.5363E+01  0.3017E+02
     10.242  0.5890E+01  0.3112E+02
     10.404  0.5519E+01  0.3201E+02
     10.565  0.1611E+01  0.3227E+02
     10.727  0.3714E+00  0.3233E+02
     10.888  0.8087E+00  0.3246E+02
     11.050  0.1320E+01  0.3268E+02
     11.211  0.2145E+01  0.3302E+02
     11.373  0.1857E+01  0.3332E+02
     11.534  0.2393E+00  0.3336E+02
     11.696  0.4600E+00  0.3344E+02
     11.858  0.5607E+00  0.3353E+02
     12.019  0.9055E-01  0.3354E+02
     12.181  0.5789E+00  0.3363E+02
     12.342  0.1785E+01  0.3392E+02
     12.504  0.1424E+01  0.3415E+02
     12.665  0.9707E+00  0.3431E+02
     12.827  0.3188E+00  0.3436E+02
     12.988  0.2267E+00  0.3440E+02
     13.150  0.7278E+00  0.3452E+02
     13.311  0.9626E+00  0.3467E+02
     13.473  0.1366E+01  0.3489E+02
     13.635  0.3739E+00  0.3495E+02
     13.796  0.9967E+00  0.3511E+02
     13.958  0.7190E+00  0.3523E+02
     14.119  0.8221E+00  0.3536E+02
     14.281  0.6063E+00  0.3546E+02
     14.442  0.7898E+00  0.3559E+02
     14.604  0.9573E+00  0.3574E+02
     14.765  0.5224E+00  0.3583E+02
     14.927  0.8016E+00  0.3596E+02
     15.089  0.1875E+00  0.3599E+02
     15.250  0.8566E-01  0.3600E+02
     15.412 -0.2722E-02  0.3600E+02
     15.573 -0.5898E-04  0.3600E+02
     15.735 -0.1492E-08  0.3600E+02
     15.896 -0.1759E-15  0.3600E+02
     16.058  0.0000E+00  0.3600E+02
     16.219  0.0000E+00  0.3600E+02
     16.381  0.0000E+00  0.3600E+02
     16.542  0.0000E+00  0.3600E+02
     16.704  0.0000E+00  0.3600E+02
     16.866  0.0000E+00  0.3600E+02
     17.027  0.0000E+00  0.3600E+02
     17.189  0.0000E+00  0.3600E+02
     17.350  0.0000E+00  0.3600E+02
