    2    2    1    1
  0.1831974E+02  0.3321364E-09  0.3321364E-09  0.3321364E-09  0.5000000E-15
  1.000000000000000E-004
  CAR 
 unknown system                          
     22     56     18
 
  0.0000000E+00  0.0000000E+00  0.0000000E+00  0.1000000E-02
      1        -28.578061   1.000000
      2        -28.578061   1.000000
      3        -28.578061   1.000000
      4        -27.803043   1.000000
      5        -27.803043   1.000000
      6        -27.803043   1.000000
      7         -2.501263   1.000000
      8          1.645311   1.000000
      9          1.645311   1.000000
     10          6.076608  -0.000000
     11          6.076608  -0.000000
     12          6.076608  -0.000000
     13          9.290863   0.000000
     14          9.290863   0.000000
     15         12.037813   0.000000
     16         12.037813   0.000000
     17         12.037813   0.000000
     18         13.850457   0.000000
 
  0.1000000E+00 -0.3821603E-33  0.0000000E+00  0.6000000E-02
      1        -28.578592   1.000000
      2        -28.558520   1.000000
      3        -28.558520   1.000000
      4        -27.843561   1.000000
      5        -27.821270   1.000000
      6        -27.821270   1.000000
      7         -2.282060   1.000000
      8          1.762737   1.000000
      9          1.808927   1.000000
     10          6.045043  -0.000000
     11          6.045043  -0.000000
     12          6.180509  -0.000000
     13          8.926576   0.000000
     14          9.414841   0.000000
     15         10.920151   0.000000
     16         10.920151   0.000000
     17         11.812890   0.000000
     18         13.130245   0.000000
 
  0.2000000E+00 -0.7643206E-33  0.0000000E+00  0.6000000E-02
      1        -28.574793   1.000000
      2        -28.501934   1.000000
      3        -28.501934   1.000000
      4        -27.954046   1.000000
      5        -27.874451   1.000000
      6        -27.874451   1.000000
      7         -1.650749   1.000000
      8          2.112984   1.000000
      9          2.216255   1.000000
     10          5.990281  -0.000000
     11          5.990281  -0.000000
     12          6.488779  -0.000000
     13          8.001786  -0.000000
     14          9.460149   0.000000
     15          9.460150   0.000000
     16          9.752522   0.000000
     17         11.202916   0.000000
     18         11.717995   0.000000
 
  0.3000000E+00 -0.1066311E-31  0.0000000E+00  0.6000000E-02
      1        -28.553088   1.000000
      2        -28.414193   1.000000
      3        -28.414193   1.000000
      4        -28.106007   1.000000
      5        -27.957990   1.000000
      6        -27.957990   1.000000
      7         -0.684744   1.000000
      8          2.581291   1.000000
      9          2.689504   1.000000
     10          6.004273  -0.000000
     11          6.004274  -0.000000
     12          6.818757  -0.000000
     13          6.991510  -0.000000
     14          8.222732   0.000000
     15          8.222732   0.000000
     16         10.178137   0.000000
     17         10.353870   0.000000
     18         10.520978   0.000000
 
  0.4000000E+00 -0.3147567E-32  0.0000000E+00  0.6000000E-02
      1        -28.498307   1.000000
      2        -28.304384   1.000000
      3        -28.304384   1.000000
      4        -28.264881   1.000000
      5        -28.064407   1.000000
      6        -28.064407   1.000000
      7          0.484398   1.000000
      8          2.447755   1.000000
      9          3.479705   1.000000
     10          5.597313  -0.000568
     11          6.180348  -0.000000
     12          6.180348  -0.000000
     13          7.262361  -0.000000
     14          7.262361  -0.000000
     15          7.670015  -0.000000
     16          9.413373   0.000000
     17         10.066116   0.000000
     18         10.428174   0.000000
 
  0.5000000E+00 -0.1019086E-32  0.0000000E+00  0.3000000E-02
      1        -28.401325   1.000000
      2        -28.401325   1.000000
      3        -28.183744   1.000000
      4        -28.183744   1.000000
      5        -28.183744   1.000000
      6        -28.183744   1.000000
      7          1.643260   1.000000
      8          1.643260   1.000000
      9          4.461705   1.000000
     10          4.461705   1.000000
     11          6.586607  -0.000000
     12          6.586607  -0.000000
     13          6.586607  -0.000000
     14          6.586607  -0.000000
     15          8.493581   0.000000
     16          8.493581   0.000000
     17         10.271933   0.000000
     18         10.271933   0.000000
 
  0.1000000E+00  0.1000000E+00  0.0000000E+00  0.1200000E-01
      1        -28.610785   1.000000
      2        -28.539779   1.000000
      3        -28.508674   1.000000
      4        -27.917316   1.000000
      5        -27.838456   1.000000
      6        -27.803594   1.000000
      7         -2.070231   1.000000
      8          1.892137   1.000000
      9          1.956248   1.000000
     10          5.803967  -0.000000
     11          5.977664  -0.000000
     12          6.502813  -0.000000
     13          8.903072   0.000000
     14          9.296175   0.000000
     15          9.983708   0.000000
     16          9.985650   0.000000
     17         12.120307   0.000000
     18         13.806490   0.000000
 
  0.2000000E+00  0.1000000E+00  0.0000000E+00  0.2400000E-01
      1        -28.632591   1.000000
      2        -28.485549   1.000000
      3        -28.430525   1.000000
      4        -28.049166   1.000000
      5        -27.888612   1.000000
      6        -27.827929   1.000000
      7         -1.462096   1.000000
      8          2.213760   1.000000
      9          2.373132   1.000000
     10          5.597848  -0.000553
     11          5.824344  -0.000000
     12          6.983699  -0.000000
     13          8.254097   0.000000
     14          8.679854   0.000000
     15          8.689358   0.000000
     16          9.594525   0.000000
     17         11.824065   0.000000
     18         12.640185   0.000000
 
  0.3000000E+00  0.1000000E+00  0.0000000E+00  0.2400000E-01
      1        -28.627889   1.000000
      2        -28.401578   1.000000
      3        -28.332440   1.000000
      4        -28.208534   1.000000
      5        -27.967558   1.000000
      6        -27.893270   1.000000
      7         -0.537689   1.000000
      8          2.608418   1.000000
      9          2.860091   1.000000
     10          5.527634  -0.009174
     11          5.621929  -0.000162
     12          7.387009  -0.000000
     13          7.545961  -0.000000
     14          7.592160  -0.000000
     15          7.720724  -0.000000
     16         10.068715   0.000000
     17         11.061945   0.000000
     18         11.241760   0.000000
 
  0.4000000E+00  0.1000000E+00  0.0000000E+00  0.2400000E-01
      1        -28.585194   1.000000
      2        -28.366456   1.000000
      3        -28.296699   1.000000
      4        -28.219612   1.000000
      5        -28.068380   1.000000
      6        -27.988312   1.000000
      7          0.571691   1.000000
      8          2.466995   1.000000
      9          3.538872   1.000000
     10          5.173567   1.023804
     11          5.651575  -0.000030
     12          6.646204  -0.000000
     13          6.870762  -0.000000
     14          7.230872  -0.000000
     15          8.335146   0.000000
     16         10.134345   0.000000
     17         10.375545   0.000000
     18         10.415276   0.000000
 
  0.5000000E+00  0.1000000E+00  0.0000000E+00  0.1200000E-01
      1        -28.497141   1.000000
      2        -28.497141   1.000000
      3        -28.181764   1.000000
      4        -28.181764   1.000000
      5        -28.101124   1.000000
      6        -28.101124   1.000000
      7          1.671555   1.000000
      8          1.671555   1.000000
      9          4.375795   1.000000
     10          4.375795   1.000000
     11          6.015796  -0.000000
     12          6.015796  -0.000000
     13          6.938172  -0.000000
     14          6.938172  -0.000000
     15          9.197180   0.000000
     16          9.197180   0.000000
     17         10.334704   0.000000
     18         10.334704   0.000000
 
  0.2000000E+00  0.2000000E+00  0.0000000E+00  0.1200000E-01
      1        -28.695549   1.000000
      2        -28.438248   1.000000
      3        -28.323275   1.000000
      4        -28.207253   1.000000
      5        -27.930098   1.000000
      6        -27.805111   1.000000
      7         -0.928749   1.000000
      8          2.398650   1.000000
      9          2.853792   1.000000
     10          5.168732   1.021575
     11          5.522529  -0.010716
     12          7.516683  -0.000000
     13          7.635417  -0.000000
     14          7.737914  -0.000000
     15          8.608640   0.000000
     16          9.374366   0.000000
     17         12.342316   0.000000
     18         13.505529   0.000000
 
  0.3000000E+00  0.2000000E+00  0.0000000E+00  0.2400000E-01
      1        -28.727774   1.000000
      2        -28.378105   1.000000
      3        -28.365343   1.000000
      4        -28.207987   1.000000
      5        -27.995817   1.000000
      6        -27.828536   1.000000
      7         -0.144161   1.000000
      8          2.514526   1.000000
      9          3.447224   1.000000
     10          4.918425   1.000000
     11          5.260942   0.963417
     12          6.478402  -0.000000
     13          7.115204  -0.000000
     14          8.273695   0.000000
     15          8.577076   0.000000
     16          9.786474   0.000000
     17         12.100408   0.000000
     18         12.389329   0.000000
 
  0.4000000E+00  0.2000000E+00  0.0000000E+00  0.2400000E-01
      1        -28.715303   1.000000
      2        -28.533288   1.000000
      3        -28.274883   1.000000
      4        -28.091605   1.000000
      5        -28.080465   1.000000
      6        -27.891165   1.000000
      7          0.753944   1.000000
      8          2.267072   1.000000
      9          4.005735   1.000000
     10          4.901535   1.000000
     11          4.983343   1.000005
     12          5.678123  -0.000006
     13          7.304502  -0.000000
     14          7.878061  -0.000000
     15          9.484714   0.000000
     16         10.220402   0.000000
     17         11.130295   0.000000
     18         11.359883   0.000000
 
  0.5000000E+00  0.2000000E+00  0.0000000E+00  0.1200000E-01
      1        -28.649997   1.000000
      2        -28.649997   1.000000
      3        -28.176563   1.000000
      4        -28.176563   1.000000
      5        -27.982555   1.000000
      6        -27.982555   1.000000
      7          1.613136   1.000000
      8          1.613136   1.000000
      9          4.549906   1.000000
     10          4.549906   1.000000
     11          5.150290   1.013793
     12          5.150290   1.013793
     13          7.662388  -0.000000
     14          7.662388  -0.000000
     15         10.435032   0.000000
     16         10.435032   0.000000
     17         10.474338   0.000000
     18         10.474338   0.000000
 
  0.3000000E+00  0.3000000E+00  0.0000000E+00  0.1200000E-01
      1        -28.798540   1.000000
      2        -28.548862   1.000000
      3        -28.310030   1.000000
      4        -28.086089   1.000000
      5        -28.041256   1.000000
      6        -27.807067   1.000000
      7          0.372634   1.000000
      8          2.252631   1.000000
      9          4.229607   1.000000
     10          4.497902   1.000000
     11          5.201878   1.034653
     12          5.544976  -0.005136
     13          7.057564  -0.000000
     14          8.911809   0.000000
     15          9.616135   0.000000
     16          9.631697   0.000000
     17         12.610604   0.000000
     18         12.629918   0.000000
 
  0.4000000E+00  0.3000000E+00  0.0000000E+00  0.2400000E-01
      1        -28.821540   1.000000
      2        -28.691792   1.000000
      3        -28.242365   1.000000
      4        -28.100935   1.000000
      5        -27.976807   1.000000
      6        -27.829016   1.000000
      7          0.890903   1.000000
      8          1.843123   1.000000
      9          4.331095   1.000000
     10          4.855359   1.000000
     11          4.908293   1.000000
     12          5.332445   0.495997
     13          7.640330  -0.000000
     14          8.794902   0.000000
     15         10.008935   0.000000
     16         10.685661   0.000000
     17         11.559187   0.000000
     18         12.405134   0.000000
 
  0.5000000E+00  0.3000000E+00  0.0000000E+00  0.1200000E-01
      1        -28.786195   1.000000
      2        -28.786195   1.000000
      3        -28.170123   1.000000
      4        -28.170123   1.000000
      5        -27.888295   1.000000
      6        -27.888295   1.000000
      7          1.376343   1.000000
      8          1.376343   1.000000
      9          4.447249   1.000000
     10          4.447249   1.000000
     11          5.297981   0.770059
     12          5.297981   0.770059
     13          8.397671   0.000000
     14          8.397671   0.000000
     15         10.541929   0.000000
     16         10.541929   0.000000
     17         11.661683   0.000000
     18         11.661683   0.000000
 
  0.4000000E+00  0.4000000E+00  0.0000000E+00  0.1200000E-01
      1        -28.880488   1.000000
      2        -28.813131   1.000000
      3        -28.203988   1.000000
      4        -28.129555   1.000000
      5        -27.887139   1.000000
      6        -27.808713   1.000000
      7          0.982510   1.000000
      8          1.429765   1.000000
      9          4.021156   1.000000
     10          4.284490   1.000000
     11          5.848630  -0.000000
     12          5.993318  -0.000000
     13          8.253288   0.000000
     14          9.225238   0.000000
     15          9.972942   0.000000
     16         11.160687   0.000000
     17         11.785860   0.000000
     18         12.874495   0.000000
 
  0.5000000E+00  0.4000000E+00  0.0000000E+00  0.1200000E-01
      1        -28.878734   1.000000
      2        -28.878734   1.000000
      3        -28.164904   1.000000
      4        -28.164904   1.000000
      5        -27.829342   1.000000
      6        -27.829342   1.000000
      7          1.138762   1.000000
      8          1.138762   1.000000
      9          4.002786   1.000000
     10          4.002786   1.000000
     11          6.311152  -0.000000
     12          6.311152  -0.000000
     13          8.950383   0.000000
     14          8.950383   0.000000
     15         10.370660   0.000000
     16         10.370660   0.000000
     17         12.604212   0.000000
     18         12.604212   0.000000
 
  0.5000000E+00  0.5000000E+00  0.0000000E+00  0.3000000E-02
      1        -28.911466   1.000000
      2        -28.911466   1.000000
      3        -28.162911   1.000000
      4        -28.162911   1.000000
      5        -27.809357   1.000000
      6        -27.809357   1.000000
      7          1.045592   1.000000
      8          1.045592   1.000000
      9          3.851384   1.000000
     10          3.851384   1.000000
     11          6.860804  -0.000000
     12          6.860804  -0.000000
     13          9.161152   0.000000
     14          9.161152   0.000000
     15         10.167206   0.000000
     16         10.167206   0.000000
     17         12.971038   0.000000
     18         12.971038   0.000000
 
  0.1000000E+00  0.1000000E+00  0.1000000E+00  0.8000000E-02
      1        -28.590508   1.000000
      2        -28.590508   1.000000
      3        -28.443967   1.000000
      4        -27.983891   1.000000
      5        -27.822669   1.000000
      6        -27.822669   1.000000
      7         -1.863892   1.000000
      8          2.061461   1.000000
      9          2.061461   1.000000
     10          5.731386  -0.000000
     11          5.731386  -0.000000
     12          6.831097  -0.000000
     13          8.613566   0.000000
     14          9.060303   0.000000
     15          9.060303   0.000000
     16         11.015145   0.000000
     17         11.015145   0.000000
     18         15.147279   0.000000
 
  0.2000000E+00  0.1000000E+00  0.1000000E+00  0.2400000E-01
      1        -28.634594   1.000000
      2        -28.531767   1.000000
      3        -28.354374   1.000000
      4        -28.116942   1.000000
      5        -27.878252   1.000000
      6        -27.830769   1.000000
      7         -1.273393   1.000000
      8          2.372278   1.000000
      9          2.476473   1.000000
     10          5.451250  -0.035293
     11          5.545043  -0.005124
     12          7.359338  -0.000000
     13          7.400656  -0.000000
     14          8.445768   0.000000
     15          9.475497   0.000000
     16          9.604805   0.000000
     17         11.065765   0.000000
     18         13.815572   0.000000
 
  0.3000000E+00  0.1000000E+00  0.1000000E+00  0.2400000E-01
      1        -28.649207   1.000000
      2        -28.440626   1.000000
      3        -28.274158   1.000000
      4        -28.254373   1.000000
      5        -27.965503   1.000000
      6        -27.875746   1.000000
      7         -0.381789   1.000000
      8          2.800425   1.000000
      9          2.871850   1.000000
     10          5.280783   0.876557
     11          5.346929   0.374982
     12          6.488835  -0.000000
     13          7.701249  -0.000000
     14          8.089137   0.000000
     15          8.441995   0.000000
     16          9.985411   0.000000
     17         10.397982   0.000000
     18         12.486082   0.000000
 
  0.4000000E+00  0.1000000E+00  0.1000000E+00  0.2400000E-01
      1        -28.622330   1.000000
      2        -28.425852   1.000000
      3        -28.326452   1.000000
      4        -28.148616   1.000000
      5        -28.076535   1.000000
      6        -27.950040   1.000000
      7          0.679139   1.000000
      8          2.550016   1.000000
      9          3.522581   1.000000
     10          4.872150   1.000000
     11          5.472900  -0.031428
     12          6.092659  -0.000000
     13          7.176031  -0.000000
     14          7.601666  -0.000000
     15          8.878777   0.000000
     16          9.844002   0.000000
     17         10.338526   0.000000
     18         11.318536   0.000000
 
  0.5000000E+00  0.1000000E+00  0.1000000E+00  0.1200000E-01
      1        -28.546915   1.000000
      2        -28.546915   1.000000
      3        -28.200895   1.000000
      4        -28.200895   1.000000
      5        -28.044203   1.000000
      6        -28.044203   1.000000
      7          1.734541   1.000000
      8          1.734541   1.000000
      9          4.242408   1.000000
     10          4.242408   1.000000
     11          5.782602  -0.000000
     12          5.782602  -0.000000
     13          7.146910  -0.000000
     14          7.146910  -0.000000
     15          9.578084   0.000000
     16          9.578084   0.000000
     17         10.533841   0.000000
     18         10.533841   0.000000
 
  0.2000000E+00  0.2000000E+00  0.1000000E+00  0.2400000E-01
      1        -28.673389   1.000000
      2        -28.511206   1.000000
      3        -28.255962   1.000000
      4        -28.250578   1.000000
      5        -27.913191   1.000000
      6        -27.826365   1.000000
      7         -0.741369   1.000000
      8          2.601097   1.000000
      9          2.920977   1.000000
     10          5.067343   1.000588
     11          5.249758   0.995496
     12          6.212736  -0.000000
     13          8.163456   0.000000
     14          8.745655   0.000000
     15          8.951108   0.000000
     16          9.323844   0.000000
     17         11.234151   0.000000
     18         14.828199   0.000000
 
  0.3000000E+00  0.2000000E+00  0.1000000E+00  0.4800000E-01
      1        -28.711671   1.000000
      2        -28.430766   1.000000
      3        -28.412258   1.000000
      4        -28.146306   1.000000
      5        -27.989021   1.000000
      6        -27.843241   1.000000
      7          0.035616   1.000000
      8          2.737002   1.000000
      9          3.441866   1.000000
     10          4.797722   1.000000
     11          5.020125   1.000047
     12          5.545620  -0.005019
     13          8.120459   0.000000
     14          8.396611   0.000000
     15          9.052365   0.000000
     16          9.765056   0.000000
     17         10.932097   0.000000
     18         13.731734   0.000000
 
  0.4000000E+00  0.2000000E+00  0.1000000E+00  0.4800000E-01
      1        -28.710642   1.000000
      2        -28.554099   1.000000
      3        -28.323697   1.000000
      4        -28.090038   1.000000
      5        -28.047429   1.000000
      6        -27.889365   1.000000
      7          0.914472   1.000000
      8          2.442840   1.000000
      9          3.856277   1.000000
     10          4.578905   1.000000
     11          5.000421   1.000014
     12          5.389990   0.089076
     13          7.773300  -0.000000
     14          7.994963  -0.000000
     15          9.895928   0.000000
     16         10.279730   0.000000
     17         10.305297   0.000000
     18         12.466595   0.000000
 
  0.5000000E+00  0.2000000E+00  0.1000000E+00  0.2400000E-01
      1        -28.657900   1.000000
      2        -28.657900   1.000000
      3        -28.205642   1.000000
      4        -28.205642   1.000000
      5        -27.959644   1.000000
      6        -27.959644   1.000000
      7          1.756601   1.000000
      8          1.756601   1.000000
      9          4.260120   1.000000
     10          4.260120   1.000000
     11          5.201899   1.034657
     12          5.201899   1.034657
     13          7.807390  -0.000000
     14          7.807390  -0.000000
     15         10.071052   0.000000
     16         10.071052   0.000000
     17         11.261327   0.000000
     18         11.261327   0.000000
 
  0.3000000E+00  0.3000000E+00  0.1000000E+00  0.2400000E-01
      1        -28.774144   1.000000
      2        -28.562260   1.000000
      3        -28.371031   1.000000
      4        -28.045334   1.000000
      5        -28.039459   1.000000
      6        -27.831026   1.000000
      7          0.578148   1.000000
      8          2.461544   1.000000
      9          4.226266   1.000000
     10          4.418079   1.000000
     11          4.947189   1.000000
     12          4.949185   1.000000
     13          7.767885  -0.000000
     14          8.957195   0.000000
     15          9.646064   0.000000
     16         10.110805   0.000000
     17         11.329490   0.000000
     18         14.111104   0.000000
 
  0.4000000E+00  0.3000000E+00  0.1000000E+00  0.4800000E-01
      1        -28.800010   1.000000
      2        -28.689880   1.000000
      3        -28.287590   1.000000
      4        -28.110823   1.000000
      5        -27.959021   1.000000
      6        -27.847905   1.000000
      7          1.101995   1.000000
      8          2.035247   1.000000
      9          4.242315   1.000000
     10          4.467602   1.000000
     11          5.001917   1.000016
     12          5.120430   1.005410
     13          7.995855  -0.000000
     14          8.845726   0.000000
     15         10.006004   0.000000
     16         10.881252   0.000000
     17         11.168886   0.000000
     18         13.313517   0.000000
 
  0.5000000E+00  0.3000000E+00  0.1000000E+00  0.2400000E-01
      1        -28.772691   1.000000
      2        -28.772691   1.000000
      3        -28.196694   1.000000
      4        -28.196694   1.000000
      5        -27.891870   1.000000
      6        -27.891870   1.000000
      7          1.573640   1.000000
      8          1.573640   1.000000
      9          4.277783   1.000000
     10          4.277783   1.000000
     11          5.236637   1.019584
     12          5.236637   1.019584
     13          8.524354   0.000000
     14          8.524354   0.000000
     15         10.312729   0.000000
     16         10.312729   0.000000
     17         12.253790   0.000000
     18         12.253790   0.000000
 
  0.4000000E+00  0.4000000E+00  0.1000000E+00  0.2400000E-01
      1        -28.854343   1.000000
      2        -28.797299   1.000000
      3        -28.237549   1.000000
      4        -28.142843   1.000000
      5        -27.892241   1.000000
      6        -27.834868   1.000000
      7          1.209929   1.000000
      8          1.633374   1.000000
      9          3.973374   1.000000
     10          4.176996   1.000000
     11          5.720575  -0.000000
     12          5.733051  -0.000000
     13          8.479245   0.000000
     14          9.271991   0.000000
     15         10.002453   0.000000
     16         10.813431   0.000000
     17         12.219689   0.000000
     18         13.488455   0.000000
 
  0.5000000E+00  0.4000000E+00  0.1000000E+00  0.2400000E-01
      1        -28.854999   1.000000
      2        -28.854999   1.000000
      3        -28.186456   1.000000
      4        -28.186456   1.000000
      5        -27.850235   1.000000
      6        -27.850235   1.000000
      7          1.357796   1.000000
      8          1.357796   1.000000
      9          3.949258   1.000000
     10          3.949258   1.000000
     11          6.099531  -0.000000
     12          6.099531  -0.000000
     13          9.055073   0.000000
     14          9.055073   0.000000
     15         10.297884   0.000000
     16         10.297884   0.000000
     17         13.045853   0.000000
     18         13.045853   0.000000
 
  0.5000000E+00  0.5000000E+00  0.1000000E+00  0.6000000E-02
      1        -28.884673   1.000000
      2        -28.884673   1.000000
      3        -28.182207   1.000000
      4        -28.182207   1.000000
      5        -27.836353   1.000000
      6        -27.836353   1.000000
      7          1.270747   1.000000
      8          1.270747   1.000000
      9          3.817111   1.000000
     10          3.817111   1.000000
     11          6.590352  -0.000000
     12          6.590352  -0.000000
     13          9.252957   0.000000
     14          9.252957   0.000000
     15         10.182620   0.000000
     16         10.182620   0.000000
     17         13.348353   0.000000
     18         13.348353   0.000000
 
  0.2000000E+00  0.2000000E+00  0.2000000E+00  0.8000000E-02
      1        -28.609137   1.000000
      2        -28.609137   1.000000
      3        -28.367913   1.000000
      4        -28.148960   1.000000
      5        -27.888249   1.000000
      6        -27.888249   1.000000
      7         -0.218671   1.000000
      8          3.111254   1.000000
      9          3.111254   1.000000
     10          4.819673   1.000000
     11          4.819673   1.000000
     12          5.068451   1.000620
     13          9.046768   0.000000
     14          9.140276   0.000000
     15          9.140276   0.000000
     16          9.970238   0.000000
     17          9.970239   0.000000
     18         14.969883   0.000000
 
  0.3000000E+00  0.2000000E+00  0.2000000E+00  0.2400000E-01
      1        -28.681825   1.000000
      2        -28.509281   1.000000
      3        -28.497434   1.000000
      4        -28.057588   1.000000
      5        -27.985194   1.000000
      6        -27.879203   1.000000
      7          0.521675   1.000000
      8          3.319575   1.000000
      9          3.389626   1.000000
     10          4.529839   1.000000
     11          4.598967   1.000000
     12          4.627562   1.000000
     13          8.819010   0.000000
     14          9.018467   0.000000
     15          9.688960   0.000000
     16         10.035265   0.000000
     17         10.170324   0.000000
     18         14.892143   0.000000
 
  0.4000000E+00  0.2000000E+00  0.2000000E+00  0.2400000E-01
      1        -28.711142   1.000000
      2        -28.611868   1.000000
      3        -28.383901   1.000000
      4        -28.108233   1.000000
      5        -27.982549   1.000000
      6        -27.891894   1.000000
      7          1.309113   1.000000
      8          2.723262   1.000000
      9          3.700550   1.000000
     10          4.256935   1.000000
     11          4.708310   1.000000
     12          4.998787   1.000013
     13          8.453786   0.000000
     14          8.474503   0.000000
     15          9.949853   0.000000
     16         10.077103   0.000000
     17         11.093578   0.000000
     18         13.701047   0.000000
 
  0.5000000E+00  0.2000000E+00  0.2000000E+00  0.1200000E-01
      1        -28.687463   1.000000
      2        -28.687463   1.000000
      3        -28.245619   1.000000
      4        -28.245619   1.000000
      5        -27.926699   1.000000
      6        -27.926699   1.000000
      7          2.031855   1.000000
      8          2.031855   1.000000
      9          3.991842   1.000000
     10          3.991842   1.000000
     11          5.002524   1.000016
     12          5.002524   1.000016
     13          8.296601   0.000000
     14          8.296601   0.000000
     15         10.022239   0.000000
     16         10.022239   0.000000
     17         12.325977   0.000000
     18         12.325977   0.000000
 
  0.3000000E+00  0.3000000E+00  0.2000000E+00  0.2400000E-01
      1        -28.703332   1.000000
      2        -28.599890   1.000000
      3        -28.484699   1.000000
      4        -28.030314   1.000000
      5        -27.985981   1.000000
      6        -27.900696   1.000000
      7          1.146635   1.000000
      8          2.996347   1.000000
      9          4.165755   1.000000
     10          4.203998   1.000000
     11          4.232611   1.000000
     12          4.430651   1.000000
     13          8.870416   0.000000
     14          9.221810   0.000000
     15          9.685862   0.000000