 vasp.6.3.0 20Jan22 (build Mar 25 2022 12:20:17) complex                        
  
 executed on             LinuxIFC date 2023.08.20  15:14:32
 running on   96 total cores
 distrk:  each k-point on   96 cores,    1 groups
 distr:  one band on NCORE=  16 cores,    6 groups


--------------------------------------------------------------------------------------------------------


 INCAR:
   ALGO = normal
   EDIFF = 1E-5
   KSPACING = 0.20000
   LASPH = .TRUE.
   ENCUT = 520
   ISIF = 2
   ISMEAR = 1
   LREAL = Auto
   LWAVE = False
   LCHARG = .FALSE.
   NELM = 400
   NSW = 0
   PREC = Accurate
   SIGMA = 0.1
   NPAR = 6

 POTCAR:    PAW_PBE Ta_pv 07Sep2000               
 POTCAR:    PAW_PBE Ta_pv 07Sep2000               
   SHA256 =  00d0a14a36c127416459414afb8617d9754996fffa60a2465888e660b20a452f Ta_pv/POTCAR          
   COPYR  = (c) Copyright 07Sep2000 Georg Kresse                                                    
   COPYR  = This file is part of the software VASP. Any use, copying, and all other rights are regul
   COPYR  = If you do not have a valid VASP license, you may not use, copy or distribute this file. 
   VRHFIN =Ta:  5p6s5d                                                                              
   LEXCH  = PE                                                                                      
   EATOM  =  1047.1984 eV,   76.9669 Ry                                                             
                                                                                                    
   TITEL  = PAW_PBE Ta_pv 07Sep2000                                                                 
   LULTRA =        F    use ultrasoft PP ?                                                          
   IUNSCR =        1    unscreen: 0-lin 1-nonlin 2-no                                               
   RPACOR =    2.330    partial core radius                                                         
   POMASS =  180.948; ZVAL   =   11.000    mass and valenz                                          
   RCORE  =    2.500    outmost cutoff radius                                                       
   RWIGS  =    2.840; RWIGS  =    1.503    wigner-seitz radius (au A)                               
   ENMAX  =  223.667; ENMIN  =  167.750 eV                                                          
   RCLOC  =    2.205    cutoff for local pot                                                        
   LCOR   =        T    correct aug charges                                                         
   LPAW   =        T    paw PP                                                                      
   EAUG   =  377.421                                                                                
   DEXC   =    0.000                                                                                
   RMAX   =    2.551    core radius for proj-oper                                                   
   RAUG   =    1.300    factor for augmentation sphere                                              
   RDEP   =    2.526    radius for radial grids                                                     
   RDEPT  =    2.132    core radius for aug-charge                                                  
                                                                                                    
   Atomic configuration                                                                             
   15 entries                                                                                       
     n  l   j            E        occ.                                                              
     1  0  0.50    -67341.2801   2.0000                                                             
     2  0  0.50    -11566.9369   2.0000                                                             
     2  1  1.50    -10134.1175   6.0000                                                             
     3  0  0.50     -2648.5614   2.0000                                                             
     3  1  1.50     -2222.6006   6.0000                                                             
     3  2  2.50     -1726.3114  10.0000                                                             
     4  0  0.50      -538.6957   2.0000                                                             
     4  1  1.50      -399.0125   6.0000                                                             
     4  2  2.50      -220.3955  10.0000                                                             
     4  3  3.50       -23.0371  14.0000                                                             
     5  0  0.50       -71.2900   2.0000                                                             
     5  1  1.50       -37.8224   6.0000                                                             
     5  2  2.50        -2.6455   4.0000                                                             
     6  0  0.50        -4.9623   1.0000                                                             
     5  3  2.50        -1.3606   0.0000                                                             
   Description                                                                                      
     l       E           TYP  RCUT    TYP  RCUT                                                     
     1    -37.8224449     23  2.500                                                                 
     1      1.3605826     23  2.500                                                                 
     2     -2.6454718     23  2.500                                                                 
     2     -0.6258570     23  2.500                                                                 
     0     -4.9622674     23  2.500                                                                 
     0      4.7531427     23  2.500                                                                 
  local pseudopotential read in
  partial core-charges read in
  partial kinetic energy density read in
  atomic valenz-charges read in
  non local Contribution for L=           1  read in
    real space projection operators read in
  non local Contribution for L=           1  read in
    real space projection operators read in
  non local Contribution for L=           2  read in
    real space projection operators read in
  non local Contribution for L=           2  read in
    real space projection operators read in
  non local Contribution for L=           0  read in
    real space projection operators read in
  non local Contribution for L=           0  read in
    real space projection operators read in
    PAW grid and wavefunctions read in
 
   number of l-projection  operators is LMAX  =           6
   number of lm-projection operators is LMMAX =          18
 
 -----------------------------------------------------------------------------
|                                                                             |
|               ----> ADVICE to this user running VASP <----                  |
|                                                                             |
|     You have a (more or less) 'small supercell' and for smaller cells       |
|     it is recommended to use the reciprocal-space projection scheme!        |
|     The real-space optimization is not efficient for small cells and it     |
|     is also less accurate ...                                               |
|     Therefore, set LREAL=.FALSE. in the INCAR file.                         |
|                                                                             |
 -----------------------------------------------------------------------------

 Optimization of the real space projectors (new method)

 maximal supplied QI-value         = 15.12
 optimisation between [QCUT,QGAM] = [ 11.64, 23.28] = [ 37.95,151.78] Ry 
 Optimized for a Real-space Cutoff    1.58 Angstroem

   l    n(q)    QCUT    max X(q) W(low)/X(q) W(high)/X(q)  e(spline) 
   1     11    11.641     4.092    0.14E-04    0.12E-05    0.47E-07
   1     11    11.641     4.834    0.39E-04    0.18E-04    0.22E-06
   2     10    11.641    62.294    0.58E-04    0.39E-03    0.13E-05
   2     10    11.641    50.966    0.58E-04    0.39E-03    0.13E-05
   0     11    11.641   103.792    0.30E-04    0.35E-04    0.21E-06
   0     11    11.641    56.335    0.22E-04    0.32E-04    0.20E-06
  PAW_PBE Ta_pv 07Sep2000               :
 energy of atom  1       EATOM=-1047.1984
 kinetic energy error for atom=    0.0016 (will be added to EATOM!!)
 
 
 POSCAR: Ta2
  positions in direct lattice
  velocities in cartesian coordinates
 exchange correlation table for  LEXCH =        8
   RHO(1)=    0.500       N(1)  =     2000
   RHO(2)=  100.500       N(2)  =     4000
 


--------------------------------------------------------------------------------------------------------


 ion  position               nearest neighbor table
   1  0.000  0.000  0.000-   2 2.88   2 2.88   2 2.88   2 2.88   2 2.88   2 2.88   2 2.88   2 2.88

   2  0.500  0.500  0.500-   1 2.88   1 2.88   1 2.88   1 2.88   1 2.88   1 2.88   1 2.88   1 2.88

 
  LATTYP: Found a simple cubic cell.
 ALAT       =     3.3213637155
  
  Lattice vectors:
  
 A1 = (   3.3213637155,   0.0000000000,   0.0000000000)
 A2 = (   0.0000000000,   3.3213637155,   0.0000000000)
 A3 = (   0.0000000000,   0.0000000000,   3.3213637155)


Analysis of symmetry for initial positions (statically):
=====================================================================
 Subroutine PRICEL returns following result:
 
  LATTYP: Found a body centered cubic cell.
 ALAT       =     3.3213637155
  
  Lattice vectors:
  
 A1 = (   1.6606818577,   1.6606818577,  -1.6606818577)
 A2 = (  -1.6606818577,   1.6606818577,   1.6606818577)
 A3 = (   1.6606818577,  -1.6606818577,   1.6606818577)
 
   2 primitive cells build up your supercell.
 

 Routine SETGRP: Setting up the symmetry group for a 
 simple cubic supercell.


 Subroutine GETGRP returns: Found 48 space group operations
 (whereof 48 operations were pure point group operations)
 out of a pool of 48 trial point group operations.


The static configuration has the point symmetry O_h .


Analysis of symmetry for dynamics (positions and initial velocities):
=====================================================================
 Subroutine PRICEL returns following result:
 
  LATTYP: Found a body centered cubic cell.
 ALAT       =     3.3213637155
  
  Lattice vectors:
  
 A1 = (   1.6606818577,   1.6606818577,  -1.6606818577)
 A2 = (  -1.6606818577,   1.6606818577,   1.6606818577)
 A3 = (   1.6606818577,  -1.6606818577,   1.6606818577)
 
   2 primitive cells build up your supercell.
 

 Routine SETGRP: Setting up the symmetry group for a 
 simple cubic supercell.


 Subroutine GETGRP returns: Found 48 space group operations
 (whereof 48 operations were pure point group operations)
 out of a pool of 48 trial point group operations.


The dynamic configuration has the point symmetry O_h .


 Subroutine INISYM returns: Found 48 space group operations
 (whereof 48 operations are pure point group operations),
 and found     2 'primitive' translations


----------------------------------------------------------------------------------------

                                     Primitive cell                                     

  volume of cell :      18.3197

  direct lattice vectors                    reciprocal lattice vectors
     1.660681858  1.660681858 -1.660681858     0.301081148  0.301081148 -0.000000000
    -1.660681858  1.660681858  1.660681858    -0.000000000  0.301081148  0.301081148
     1.660681858 -1.660681858  1.660681858     0.301081148 -0.000000000  0.301081148

  length of vectors
     2.876385353  2.876385353  2.876385353     0.425793043  0.425793043  0.425793043

  position of ions in fractional coordinates (direct lattice)
     0.000000000  0.000000000  0.000000000

  ion indices of the primitive-cell ions
   primitive index   ion index
                 1           1

----------------------------------------------------------------------------------------

 
 -----------------------------------------------------------------------------
|                                                                             |
|           W    W    AA    RRRRR   N    N  II  N    N   GGGG   !!!           |
|           W    W   A  A   R    R  NN   N  II  NN   N  G    G  !!!           |
|           W    W  A    A  R    R  N N  N  II  N N  N  G       !!!           |
|           W WW W  AAAAAA  RRRRR   N  N N  II  N  N N  G  GGG   !            |
|           WW  WW  A    A  R   R   N   NN  II  N   NN  G    G                |
|           W    W  A    A  R    R  N    N  II  N    N   GGGG   !!!           |
|                                                                             |
|     The requested file  could not be found or opened for reading            |
|     k-point information. Automatic k-point generation is used as a          |
|     fallback, which may lead to unwanted results.                           |
|                                                                             |
 -----------------------------------------------------------------------------

 

Automatic generation of k-mesh.
 Grid dimensions derived from KSPACING:
 generate k-points for:   10   10   10

 Generating k-lattice:

  Cartesian coordinates                     Fractional coordinates (reciprocal lattice)
     0.030108115 -0.000000000  0.000000000     0.100000000 -0.000000000  0.000000000
     0.000000000  0.030108115  0.000000000     0.000000000  0.100000000  0.000000000
    -0.000000000 -0.000000000  0.030108115    -0.000000000 -0.000000000  0.100000000

  Length of vectors
     0.030108115  0.030108115  0.030108115

  Shift w.r.t. Gamma in fractional coordinates (k-lattice)
     0.000000000  0.000000000  0.000000000

 
 Subroutine IBZKPT returns following result:
 ===========================================
 
 Found     56 irreducible k-points:
 
 Following reciprocal coordinates:
            Coordinates               Weight
  0.000000  0.000000  0.000000      1.000000
  0.100000 -0.000000  0.000000      6.000000
  0.200000 -0.000000  0.000000      6.000000
  0.300000 -0.000000  0.000000      6.000000
  0.400000 -0.000000  0.000000      6.000000
  0.500000 -0.000000  0.000000      3.000000
  0.100000  0.100000  0.000000     12.000000
  0.200000  0.100000  0.000000     24.000000
  0.300000  0.100000  0.000000     24.000000
  0.400000  0.100000  0.000000     24.000000
  0.500000  0.100000  0.000000     12.000000
  0.200000  0.200000  0.000000     12.000000
  0.300000  0.200000  0.000000     24.000000
  0.400000  0.200000  0.000000     24.000000
  0.500000  0.200000  0.000000     12.000000
  0.300000  0.300000  0.000000     12.000000
  0.400000  0.300000  0.000000     24.000000
  0.500000  0.300000  0.000000     12.000000
  0.400000  0.400000  0.000000     12.000000
  0.500000  0.400000  0.000000     12.000000
  0.500000  0.500000  0.000000      3.000000
  0.100000  0.100000  0.100000      8.000000
  0.200000  0.100000  0.100000     24.000000
  0.300000  0.100000  0.100000     24.000000
  0.400000  0.100000  0.100000     24.000000
  0.500000  0.100000  0.100000     12.000000
  0.200000  0.200000  0.100000     24.000000
  0.300000  0.200000  0.100000     48.000000
  0.400000  0.200000  0.100000     48.000000
  0.500000  0.200000  0.100000     24.000000
  0.300000  0.300000  0.100000     24.000000
  0.400000  0.300000  0.100000     48.000000
  0.500000  0.300000  0.100000     24.000000
  0.400000  0.400000  0.100000     24.000000
  0.500000  0.400000  0.100000     24.000000
  0.500000  0.500000  0.100000      6.000000
  0.200000  0.200000  0.200000      8.000000
  0.300000  0.200000  0.200000     24.000000
  0.400000  0.200000  0.200000     24.000000
  0.500000  0.200000  0.200000     12.000000
  0.300000  0.300000  0.200000     24.000000
  0.400000  0.300000  0.200000     48.000000
  0.500000  0.300000  0.200000     24.000000
  0.400000  0.400000  0.200000     24.000000
  0.500000  0.400000  0.200000     24.000000
  0.500000  0.500000  0.200000      6.000000
  0.300000  0.300000  0.300000      8.000000
  0.400000  0.300000  0.300000     24.000000
  0.500000  0.300000  0.300000     12.000000
  0.400000  0.400000  0.300000     24.000000
  0.500000  0.400000  0.300000     24.000000
  0.500000  0.500000  0.300000      6.000000
  0.400000  0.400000  0.400000      8.000000
  0.500000  0.400000  0.400000     12.000000
  0.500000  0.500000  0.400000      6.000000
  0.500000  0.500000  0.500000      1.000000
 
 Following cartesian coordinates:
            Coordinates               Weight
  0.000000  0.000000  0.000000      1.000000
  0.030108 -0.000000  0.000000      6.000000
  0.060216 -0.000000  0.000000      6.000000
  0.090324 -0.000000  0.000000      6.000000
  0.120432 -0.000000  0.000000      6.000000
  0.150541 -0.000000  0.000000      3.000000
  0.030108  0.030108  0.000000     12.000000
  0.060216  0.030108  0.000000     24.000000
  0.090324  0.030108  0.000000     24.000000
  0.120432  0.030108  0.000000     24.000000
  0.150541  0.030108  0.000000     12.000000
  0.060216  0.060216  0.000000     12.000000
  0.090324  0.060216  0.000000     24.000000
  0.120432  0.060216  0.000000     24.000000
  0.150541  0.060216  0.000000     12.000000
  0.090324  0.090324  0.000000     12.000000
  0.120432  0.090324  0.000000     24.000000
  0.150541  0.090324  0.000000     12.000000
  0.120432  0.120432  0.000000     12.000000
  0.150541  0.120432  0.000000     12.000000
  0.150541  0.150541  0.000000      3.000000
  0.030108  0.030108  0.030108      8.000000
  0.060216  0.030108  0.030108     24.000000
  0.090324  0.030108  0.030108     24.000000
  0.120432  0.030108  0.030108     24.000000
  0.150541  0.030108  0.030108     12.000000
  0.060216  0.060216  0.030108     24.000000
  0.090324  0.060216  0.030108     48.000000
  0.120432  0.060216  0.030108     48.000000
  0.150541  0.060216  0.030108     24.000000
  0.090324  0.090324  0.030108     24.000000
  0.120432  0.090324  0.030108     48.000000
  0.150541  0.090324  0.030108     24.000000
  0.120432  0.120432  0.030108     24.000000
  0.150541  0.120432  0.030108     24.000000
  0.150541  0.150541  0.030108      6.000000
  0.060216  0.060216  0.060216      8.000000
  0.090324  0.060216  0.060216     24.000000
  0.120432  0.060216  0.060216     24.000000
  0.150541  0.060216  0.060216     12.000000
  0.090324  0.090324  0.060216     24.000000
  0.120432  0.090324  0.060216     48.000000
  0.150541  0.090324  0.060216     24.000000
  0.120432  0.120432  0.060216     24.000000
  0.150541  0.120432  0.060216     24.000000
  0.150541  0.150541  0.060216      6.000000
  0.090324  0.090324  0.090324      8.000000
  0.120432  0.090324  0.090324     24.000000
  0.150541  0.090324  0.090324     12.000000
  0.120432  0.120432  0.090324     24.000000
  0.150541  0.120432  0.090324     24.000000
  0.150541  0.150541  0.090324      6.000000
  0.120432  0.120432  0.120432      8.000000
  0.150541  0.120432  0.120432     12.000000
  0.150541  0.150541  0.120432      6.000000
  0.150541  0.150541  0.150541      1.000000
 


--------------------------------------------------------------------------------------------------------




 Dimension of arrays:
   k-points           NKPTS =     56   k-points in BZ     NKDIM =     56   number of bands    NBANDS=     18
   number of dos      NEDOS =    301   number of ions     NIONS =      2
   non local maximal  LDIM  =      6   non local SUM 2l+1 LMDIM =     18
   total plane-waves  NPLWV =  21952
   max r-space proj   IRMAX =   9945   max aug-charges    IRDMAX=  33855
   dimension x,y,z NGX =    28 NGY =   28 NGZ =   28
   dimension x,y,z NGXF=    56 NGYF=   56 NGZF=   56
   support grid    NGXF=    56 NGYF=   56 NGZF=   56
   ions per type =               2
   NGX,Y,Z   is equivalent  to a cutoff of  14.01, 14.01, 14.01 a.u.
   NGXF,Y,Z  is equivalent  to a cutoff of  28.03, 28.03, 28.03 a.u.

 SYSTEM =  unknown system                          
 POSCAR =  Ta2                                     

 Startparameter for this run:
   NWRITE =      2    write-flag & timer
   PREC   = accura    normal or accurate (medium, high low for compatibility)
   ISTART =      0    job   : 0-new  1-cont  2-samecut
   ICHARG =      2    charge: 1-file 2-atom 10-const
   ISPIN  =      1    spin polarized calculation?
   LNONCOLLINEAR =      F non collinear calculations
   LSORBIT =      F    spin-orbit coupling
   INIWAV =      1    electr: 0-lowe 1-rand  2-diag
   LASPH  =      T    aspherical Exc in radial PAW
 Electronic Relaxation 1
   ENCUT  =  520.0 eV  38.22 Ry    6.18 a.u.   6.18  6.18  6.18*2*pi/ulx,y,z
   ENINI  =  520.0     initial cutoff
   ENAUG  =  377.4 eV  augmentation charge cutoff
   NELM   =    400;   NELMIN=  2; NELMDL= -5     # of ELM steps 
   EDIFF  = 0.1E-04   stopping-criterion for ELM
   LREAL  =      T    real-space projection
   NLSPLINE    = F    spline interpolate recip. space projectors
   LCOMPAT=      F    compatible to vasp.4.4
   GGA_COMPAT  = T    GGA compatible to vasp.4.4-vasp.4.6
   LMAXPAW     = -100 max onsite density
   LMAXMIX     =    2 max onsite mixed and CHGCAR
   VOSKOWN=      0    Vosko Wilk Nusair interpolation
   ROPT   =   -0.00025
 Ionic relaxation
   EDIFFG = 0.1E-03   stopping-criterion for IOM
   NSW    =      0    number of steps for IOM
   NBLOCK =      1;   KBLOCK =      1    inner block; outer block 
   IBRION =     -1    ionic relax: 0-MD 1-quasi-New 2-CG
   NFREE  =      0    steps in history (QN), initial steepest desc. (CG)
   ISIF   =      2    stress and relaxation
   IWAVPR =     10    prediction:  0-non 1-charg 2-wave 3-comb
   ISYM   =      2    0-nonsym 1-usesym 2-fastsym
   LCORR  =      T    Harris-Foulkes like correction to forces

   POTIM  = 0.5000    time-step for ionic-motion
   TEIN   =    0.0    initial temperature
   TEBEG  =    0.0;   TEEND  =   0.0 temperature during run
   SMASS  =  -3.00    Nose mass-parameter (am)
   estimated Nose-frequenzy (Omega)   =  0.10E-29 period in steps = 0.13E+47 mass=  -0.252E-27a.u.
   SCALEE = 1.0000    scale energy and forces
   NPACO  =    256;   APACO  = 10.0  distance and # of slots for P.C.
   PSTRESS=    0.0 pullay stress

  Mass of Ions in am
   POMASS = 180.95
  Ionic Valenz
   ZVAL   =  11.00
  Atomic Wigner-Seitz radii
   RWIGS  =  -1.00
  virtual crystal weights 
   VCA    =   1.00
   NELECT =      22.0000    total number of electrons
   NUPDOWN=      -1.0000    fix difference up-down

 DOS related values:
   EMIN   =  10.00;   EMAX   =-10.00  energy-range for DOS
   EFERMI =   0.00
   ISMEAR =     1;   SIGMA  =   0.10  broadening in eV -4-tet -1-fermi 0-gaus

 Electronic relaxation 2 (details)
   IALGO  =     38    algorithm
   LDIAG  =      T    sub-space diagonalisation (order eigenvalues)
   LSUBROT=      F    optimize rotation matrix (better conditioning)
   TURBO    =      0    0=normal 1=particle mesh
   IRESTART =      0    0=no restart 2=restart with 2 vectors
   NREBOOT  =      0    no. of reboots
   NMIN     =      0    reboot dimension
   EREF     =   0.00    reference energy to select bands
   IMIX   =      4    mixing-type and parameters
     AMIX     =   0.40;   BMIX     =  1.00
     AMIX_MAG =   1.60;   BMIX_MAG =  1.00
     AMIN     =   0.10
     WC   =   100.;   INIMIX=   1;  MIXPRE=   1;  MAXMIX= -45

 Intra band minimization:
   WEIMIN = 0.0000     energy-eigenvalue tresh-hold
   EBREAK =  0.14E-06  absolut break condition
   DEPER  =   0.30     relativ break condition  

   TIME   =   0.40     timestep for ELM

  volume/ion in A,a.u.               =      18.32       123.63
  Fermi-wavevector in a.u.,A,eV,Ry     =   1.381124  2.609946 25.953155  1.907503
  Thomas-Fermi vector in A             =   2.505937
 
 Write flags
   LWAVE        =      F    write WAVECAR
   LDOWNSAMPLE  =      F    k-point downsampling of WAVECAR
   LCHARG       =      F    write CHGCAR
   LVTOT        =      F    write LOCPOT, total local potential
   LVHAR        =      F    write LOCPOT, Hartree potential only
   LELF         =      F    write electronic localiz. function (ELF)
   LORBIT       =      0    0 simple, 1 ext, 2 COOP (PROOUT), +10 PAW based schemes


 Dipole corrections
   LMONO  =      F    monopole corrections only (constant potential shift)
   LDIPOL =      F    correct potential (dipole corrections)
   IDIPOL =      0    1-x, 2-y, 3-z, 4-all directions 
   EPSILON=  1.0000000 bulk dielectric constant

 Exchange correlation treatment:
   GGA     =    --    GGA type
   LEXCH   =     8    internal setting for exchange type
   LIBXC   =     F    Libxc                    
   VOSKOWN =     0    Vosko Wilk Nusair interpolation
   LHFCALC =     F    Hartree Fock is set to
   LHFONE  =     F    Hartree Fock one center treatment
   AEXX    =    0.0000 exact exchange contribution

 Linear response parameters
   LEPSILON=     F    determine dielectric tensor
   LRPA    =     F    only Hartree local field effects (RPA)
   LNABLA  =     F    use nabla operator in PAW spheres
   LVEL    =     F    velocity operator in full k-point grid
   CSHIFT  =0.1000    complex shift for real part using Kramers Kronig
   OMEGAMAX=  -1.0    maximum frequency
   DEG_THRESHOLD= 0.2000000E-02 threshold for treating states as degnerate
   RTIME   =   -0.100 relaxation time in fs
  (WPLASMAI=    0.000 imaginary part of plasma frequency in eV, 0.658/RTIME)
   DFIELD  = 0.0000000 0.0000000 0.0000000 field for delta impulse in time
 
  Optional k-point grid parameters
   LKPOINTS_OPT  =     F    use optional k-point grid
   KPOINTS_OPT_MODE=     1    mode for optional k-point grid
 
 Orbital magnetization related:
   ORBITALMAG=     F  switch on orbital magnetization
   LCHIMAG   =     F  perturbation theory with respect to B field
   DQ        =  0.001000  dq finite difference perturbation B field
   LLRAUG    =     F  two centre corrections for induced B field



--------------------------------------------------------------------------------------------------------


 Static calculation
 charge density and potential will be updated during run
 non-spin polarized calculation
 Variant of blocked Davidson
 Davidson routine will perform the subspace rotation
 perform sub-space diagonalisation
    after iterative eigenvector-optimisation
 modified Broyden-mixing scheme, WC =      100.0
 initial mixing is a Kerker type mixing with AMIX =  0.4000 and BMIX =      1.0000
 Hartree-type preconditioning will be used
 using additional bands            7
 real space projection scheme for non local part
 use partial core corrections
 calculate Harris-corrections to forces 
   (improved forces if not selfconsistent)
 use gradient corrections 
 use of overlap-Matrix (Vanderbilt PP)
 Methfessel and Paxton  Order N= 1 SIGMA  =   0.10


--------------------------------------------------------------------------------------------------------


  energy-cutoff  :      520.00
  volume of cell :       36.64
      direct lattice vectors                 reciprocal lattice vectors
     3.321363715  0.000000000  0.000000000     0.301081148 -0.000000000  0.000000000
     0.000000000  3.321363715  0.000000000     0.000000000  0.301081148  0.000000000
     0.000000000  0.000000000  3.321363715    -0.000000000 -0.000000000  0.301081148

  length of vectors
     3.321363715  3.321363715  3.321363715     0.301081148  0.301081148  0.301081148


 
 k-points in units of 2pi/SCALE and weight: read from INCAR                         
   0.00000000  0.00000000  0.00000000       0.001
   0.03010811 -0.00000000  0.00000000       0.006
   0.06021623 -0.00000000  0.00000000       0.006
   0.09032434 -0.00000000  0.00000000       0.006
   0.12043246 -0.00000000  0.00000000       0.006
   0.15054057 -0.00000000  0.00000000       0.003
   0.03010811  0.03010811  0.00000000       0.012
   0.06021623  0.03010811  0.00000000       0.024
   0.09032434  0.03010811  0.00000000       0.024
   0.12043246  0.03010811  0.00000000       0.024
   0.15054057  0.03010811  0.00000000       0.012
   0.06021623  0.06021623  0.00000000       0.012
   0.09032434  0.06021623  0.00000000       0.024
   0.12043246  0.06021623  0.00000000       0.024
   0.15054057  0.06021623  0.00000000       0.012
   0.09032434  0.09032434  0.00000000       0.012
   0.12043246  0.09032434  0.00000000       0.024
   0.15054057  0.09032434  0.00000000       0.012
   0.12043246  0.12043246  0.00000000       0.012
   0.15054057  0.12043246  0.00000000       0.012
   0.15054057  0.15054057  0.00000000       0.003
   0.03010811  0.03010811  0.03010811       0.008
   0.06021623  0.03010811  0.03010811       0.024
   0.09032434  0.03010811  0.03010811       0.024
   0.12043246  0.03010811  0.03010811       0.024
   0.15054057  0.03010811  0.03010811       0.012
   0.06021623  0.06021623  0.03010811       0.024
   0.09032434  0.06021623  0.03010811       0.048
   0.12043246  0.06021623  0.03010811       0.048
   0.15054057  0.06021623  0.03010811       0.024
   0.09032434  0.09032434  0.03010811       0.024
   0.12043246  0.09032434  0.03010811       0.048
   0.15054057  0.09032434  0.03010811       0.024
   0.12043246  0.12043246  0.03010811       0.024
   0.15054057  0.12043246  0.03010811       0.024
   0.15054057  0.15054057  0.03010811       0.006
   0.06021623  0.06021623  0.06021623       0.008
   0.09032434  0.06021623  0.06021623       0.024
   0.12043246  0.06021623  0.06021623       0.024
   0.15054057  0.06021623  0.06021623       0.012
   0.09032434  0.09032434  0.06021623       0.024
   0.12043246  0.09032434  0.06021623       0.048
   0.15054057  0.09032434  0.06021623       0.024
   0.12043246  0.12043246  0.06021623       0.024
   0.15054057  0.12043246  0.06021623       0.024
   0.15054057  0.15054057  0.06021623       0.006
   0.09032434  0.09032434  0.09032434       0.008
   0.12043246  0.09032434  0.09032434       0.024
   0.15054057  0.09032434  0.09032434       0.012
   0.12043246  0.12043246  0.09032434       0.024
   0.15054057  0.12043246  0.09032434       0.024
   0.15054057  0.15054057  0.09032434       0.006
   0.12043246  0.12043246  0.12043246       0.008
   0.15054057  0.12043246  0.12043246       0.012
   0.15054057  0.15054057  0.12043246       0.006
   0.15054057  0.15054057  0.15054057       0.001
 
 k-points in reciprocal lattice and weights: read from INCAR                         
   0.00000000  0.00000000  0.00000000       0.001
   0.10000000 -0.00000000  0.00000000       0.006
   0.20000000 -0.00000000  0.00000000       0.006
   0.30000000 -0.00000000  0.00000000       0.006
   0.40000000 -0.00000000  0.00000000       0.006
   0.50000000 -0.00000000  0.00000000       0.003
   0.10000000  0.10000000  0.00000000       0.012
   0.20000000  0.10000000  0.00000000       0.024
   0.30000000  0.10000000  0.00000000       0.024
   0.40000000  0.10000000  0.00000000       0.024
   0.50000000  0.10000000  0.00000000       0.012
   0.20000000  0.20000000  0.00000000       0.012
   0.30000000  0.20000000  0.00000000       0.024
   0.40000000  0.20000000  0.00000000       0.024
   0.50000000  0.20000000  0.00000000       0.012
   0.30000000  0.30000000  0.00000000       0.012
   0.40000000  0.30000000  0.00000000       0.024
   0.50000000  0.30000000  0.00000000       0.012
   0.40000000  0.40000000  0.00000000       0.012
   0.50000000  0.40000000  0.00000000       0.012
   0.50000000  0.50000000  0.00000000       0.003
   0.10000000  0.10000000  0.10000000       0.008
   0.20000000  0.10000000  0.10000000       0.024
   0.30000000  0.10000000  0.10000000       0.024
   0.40000000  0.10000000  0.10000000       0.024
   0.50000000  0.10000000  0.10000000       0.012
   0.20000000  0.20000000  0.10000000       0.024
   0.30000000  0.20000000  0.10000000       0.048
   0.40000000  0.20000000  0.10000000       0.048
   0.50000000  0.20000000  0.10000000       0.024
   0.30000000  0.30000000  0.10000000       0.024
   0.40000000  0.30000000  0.10000000       0.048
   0.50000000  0.30000000  0.10000000       0.024
   0.40000000  0.40000000  0.10000000       0.024
   0.50000000  0.40000000  0.10000000       0.024
   0.50000000  0.50000000  0.10000000       0.006
   0.20000000  0.20000000  0.20000000       0.008
   0.30000000  0.20000000  0.20000000       0.024
   0.40000000  0.20000000  0.20000000       0.024
   0.50000000  0.20000000  0.20000000       0.012
   0.30000000  0.30000000  0.20000000       0.024
   0.40000000  0.30000000  0.20000000       0.048
   0.50000000  0.30000000  0.20000000       0.024
   0.40000000  0.40000000  0.20000000       0.024
   0.50000000  0.40000000  0.20000000       0.024
   0.50000000  0.50000000  0.20000000       0.006
   0.30000000  0.30000000  0.30000000       0.008
   0.40000000  0.30000000  0.30000000       0.024
   0.50000000  0.30000000  0.30000000       0.012
   0.40000000  0.40000000  0.30000000       0.024
   0.50000000  0.40000000  0.30000000       0.024
   0.50000000  0.50000000  0.30000000       0.006
   0.40000000  0.40000000  0.40000000       0.008
   0.50000000  0.40000000  0.40000000       0.012
   0.50000000  0.50000000  0.40000000       0.006
   0.50000000  0.50000000  0.50000000       0.001
 
 position of ions in fractional coordinates (direct lattice) 
   0.00000000  0.00000000  0.00000000
   0.50000000  0.50000000  0.50000000
 
 position of ions in cartesian coordinates  (Angst):
   0.00000000  0.00000000  0.00000000
   1.66068186  1.66068186  1.66068186
 


--------------------------------------------------------------------------------------------------------


 k-point   1 :   0.0000 0.0000 0.0000  plane waves:    1021
 k-point   2 :   0.1000-0.0000 0.0000  plane waves:     981
 k-point   3 :   0.2000-0.0000 0.0000  plane waves:     984
 k-point   4 :   0.3000-0.0000 0.0000  plane waves:     988
 k-point   5 :   0.4000-0.0000 0.0000  plane waves:     988
 k-point   6 :   0.5000-0.0000 0.0000  plane waves:     972
 k-point   7 :   0.1000 0.1000 0.0000  plane waves:     981
 k-point   8 :   0.2000 0.1000 0.0000  plane waves:     980
 k-point   9 :   0.3000 0.1000 0.0000  plane waves:     990
 k-point  10 :   0.4000 0.1000 0.0000  plane waves:     986
 k-point  11 :   0.5000 0.1000 0.0000  plane waves:     992
 k-point  12 :   0.2000 0.2000 0.0000  plane waves:     981
 k-point  13 :   0.3000 0.2000 0.0000  plane waves:     995
 k-point  14 :   0.4000 0.2000 0.0000  plane waves:     990
 k-point  15 :   0.5000 0.2000 0.0000  plane waves:     980
 k-point  16 :   0.3000 0.3000 0.0000  plane waves:     981
 k-point  17 :   0.4000 0.3000 0.0000  plane waves:     982
 k-point  18 :   0.5000 0.3000 0.0000  plane waves:     978
 k-point  19 :   0.4000 0.4000 0.0000  plane waves:     994
 k-point  20 :   0.5000 0.4000 0.0000  plane waves:     988
 k-point  21 :   0.5000 0.5000 0.0000  plane waves:     992
 k-point  22 :   0.1000 0.1000 0.1000  plane waves:     985
 k-point  23 :   0.2000 0.1000 0.1000  plane waves:     983
 k-point  24 :   0.3000 0.1000 0.1000  plane waves:     990
 k-point  25 :   0.4000 0.1000 0.1000  plane waves:     980
 k-point  26 :   0.5000 0.1000 0.1000  plane waves:     974
 k-point  27 :   0.2000 0.2000 0.1000  plane waves:     986
 k-point  28 :   0.3000 0.2000 0.1000  plane waves:     982
 k-point  29 :   0.4000 0.2000 0.1000  plane waves:     980
 k-point  30 :   0.5000 0.2000 0.1000  plane waves:     982
 k-point  31 :   0.3000 0.3000 0.1000  plane waves:     986
 k-point  32 :   0.4000 0.3000 0.1000  plane waves:     994
 k-point  33 :   0.5000 0.3000 0.1000  plane waves:     988
 k-point  34 :   0.4000 0.4000 0.1000  plane waves:     995
 k-point  35 :   0.5000 0.4000 0.1000  plane waves:     994
 k-point  36 :   0.5000 0.5000 0.1000  plane waves:     996
 k-point  37 :   0.2000 0.2000 0.2000  plane waves:     991
 k-point  38 :   0.3000 0.2000 0.2000  plane waves:     987
 k-point  39 :   0.4000 0.2000 0.2000  plane waves:     988
 k-point  40 :   0.5000 0.2000 0.2000  plane waves:     986
 k-point  41 :   0.3000 0.3000 0.2000  plane waves:     983
 k-point  42 :   0.4000 0.3000 0.2000  plane waves:     988
 k-point  43 :   0.5000 0.3000 0.2000  plane waves:     980
 k-point  44 :   0.4000 0.4000 0.2000  plane waves:     982
 k-point  45 :   0.5000 0.4000 0.2000  plane waves:     988
 k-point  46 :   0.5000 0.5000 0.2000  plane waves:     992
 k-point  47 :   0.3000 0.3000 0.3000  plane waves:     979
 k-point  48 :   0.4000 0.3000 0.3000  plane waves:     988
 k-point  49 :   0.5000 0.3000 0.3000  plane waves:     992
 k-point  50 :   0.4000 0.4000 0.3000  plane waves:     987
 k-point  51 :   0.5000 0.4000 0.3000  plane waves:     994
 k-point  52 :   0.5000 0.5000 0.3000  plane waves:     996
 k-point  53 :   0.4000 0.4000 0.4000  plane waves:     991
 k-point  54 :   0.5000 0.4000 0.4000  plane waves:     990
 k-point  55 :   0.5000 0.5000 0.4000  plane waves:     992
 k-point  56 :   0.5000 0.5000 0.5000  plane waves:     968

 maximum and minimum number of plane-waves per node :        72       53

 maximum number of plane-waves:      1021
 maximum index in each direction: 
   IXMAX=    6   IYMAX=    6   IZMAX=    6
   IXMIN=   -6   IYMIN=   -6   IZMIN=   -6


 real space projection operators:
  total allocation   :       2707.59 KBytes
  max/ min on nodes  :        221.06         77.77


 parallel 3D FFT for wavefunctions:
    minimum data exchange during FFTs selected (reduces bandwidth)
 parallel 3D FFT for charge:
    minimum data exchange during FFTs selected (reduces bandwidth)


 total amount of memory used by VASP MPI-rank0    31166. kBytes
=======================================================================

   base      :      30000. kBytes
   nonlr-proj:        541. kBytes
   fftplans  :        168. kBytes
   grid      :        217. kBytes
   one-center:         15. kBytes
   wavefun   :        225. kBytes
 
     INWAV:  cpu time      0.0001: real time      0.0003
 Broyden mixing: mesh for mixing (old mesh)
   NGX = 13   NGY = 13   NGZ = 13
  (NGX  = 56   NGY  = 56   NGZ  = 56)
  gives a total of   2197 points

 initial charge density was supplied:
 charge density of overlapping atoms calculated
 number of electron      22.0000000 magnetization 
 keeping initial charge density in first step


--------------------------------------------------------------------------------------------------------


 Maximum index for non-local projection operator          650
 Maximum index for augmentation-charges         1229 (set IRDMAX)


--------------------------------------------------------------------------------------------------------


 First call to EWALD:  gamma=   0.534
 Maximum number of real-space cells 3x 3x 3
 Maximum number of reciprocal cells 3x 3x 3

    FEWALD:  cpu time      0.0017: real time      0.0017


--------------------------------------- Iteration      1(   1)  ---------------------------------------


    POTLOK:  cpu time      0.0099: real time      0.0141
    SETDIJ:  cpu time      0.1189: real time      0.1210
     EDDAV:  cpu time      0.3972: real time      0.5016
       DOS:  cpu time      0.0032: real time      0.0057
    --------------------------------------------
      LOOP:  cpu time      0.5292: real time      0.6424

 eigenvalue-minimisations  :  2016
 total energy-change (2. order) : 0.1342189E+03  (-0.1287508E+04)
 number of electron      22.0000000 magnetization 
 augmentation part       22.0000000 magnetization 

 Free energy of the ion-electron system (eV)
  ---------------------------------------------------
  alpha Z        PSCENC =       250.27956962
  Ewald energy   TEWEN  =     -1909.12746107
  -Hartree energ DENC   =      -256.29684155
  -exchange      EXHF   =         0.00000000
  -V(xc)+E(xc)   XCENC  =        46.97694961
  PAW double counting   =      1641.89683898    -1608.88133722
  entropy T*S    EENTRO =        -0.00214426
  eigenvalues    EBANDS =      -125.02016915
  atomic energy  EATOM  =      2094.39351137
  Solvation  Ediel_sol  =         0.00000000
  ---------------------------------------------------
  free energy    TOTEN  =       134.21891633 eV

  energy without entropy =      134.22106059  energy(sigma->0) =      134.21963108


--------------------------------------------------------------------------------------------------------




--------------------------------------- Iteration      1(   2)  ---------------------------------------


     EDDAV:  cpu time      0.3458: real time      0.3655
       DOS:  cpu time      0.0008: real time      0.0008
    --------------------------------------------
      LOOP:  cpu time      0.3466: real time      0.3663

 eigenvalue-minimisations  :  2424
 total energy-change (2. order) :-0.1559665E+03  (-0.1515372E+03)
 number of electron      22.0000000 magnetization 
 augmentation part       22.0000000 magnetization 

 Free energy of the ion-electron system (eV)
  ---------------------------------------------------
  alpha Z        PSCENC =       250.27956962
  Ewald energy   TEWEN  =     -1909.12746107
  -Hartree energ DENC   =      -256.29684155
  -exchange      EXHF   =         0.00000000
  -V(xc)+E(xc)   XCENC  =        46.97694961
  PAW double counting   =      1641.89683898    -1608.88133722
  entropy T*S    EENTRO =        -0.00189384
  eigenvalues    EBANDS =      -280.98694175
  atomic energy  EATOM  =      2094.39351137
  Solvation  Ediel_sol  =         0.00000000
  ---------------------------------------------------
  free energy    TOTEN  =       -21.74760585 eV

  energy without entropy =      -21.74571202  energy(sigma->0) =      -21.74697458


--------------------------------------------------------------------------------------------------------




--------------------------------------- Iteration      1(   3)  ---------------------------------------


     EDDAV:  cpu time      0.3344: real time      0.3486
       DOS:  cpu time      0.0008: real time      0.0008
    --------------------------------------------
      LOOP:  cpu time      0.3352: real time      0.3494

 eigenvalue-minimisations  :  2412
 total energy-change (2. order) :-0.2815935E+01  (-0.2784222E+01)
 number of electron      22.0000000 magnetization 
 augmentation part       22.0000000 magnetization 

 Free energy of the ion-electron system (eV)
  ---------------------------------------------------
  alpha Z        PSCENC =       250.27956962
  Ewald energy   TEWEN  =     -1909.12746107
  -Hartree energ DENC   =      -256.29684155
  -exchange      EXHF   =         0.00000000
  -V(xc)+E(xc)   XCENC  =        46.97694961
  PAW double counting   =      1641.89683898    -1608.88133722
  entropy T*S    EENTRO =        -0.00074295
  eigenvalues    EBANDS =      -283.80402738
  atomic energy  EATOM  =      2094.39351137
  Solvation  Ediel_sol  =         0.00000000
  ---------------------------------------------------
  free energy    TOTEN  =       -24.56354060 eV

  energy without entropy =      -24.56279764  energy(sigma->0) =      -24.56329294


--------------------------------------------------------------------------------------------------------




--------------------------------------- Iteration      1(   4)  ---------------------------------------


     EDDAV:  cpu time      0.3519: real time      0.3701
       DOS:  cpu time      0.0007: real time      0.0007
    --------------------------------------------
      LOOP:  cpu time      0.3527: real time      0.3708

 eigenvalue-minimisations  :  2232
 total energy-change (2. order) :-0.1920021E-01  (-0.1919364E-01)
 number of electron      22.0000000 magnetization 
 augmentation part       22.0000000 magnetization 

 Free energy of the ion-electron system (eV)
  ---------------------------------------------------
  alpha Z        PSCENC =       250.27956962
  Ewald energy   TEWEN  =     -1909.12746107
  -Hartree energ DENC   =      -256.29684155
  -exchange      EXHF   =         0.00000000
  -V(xc)+E(xc)   XCENC  =        46.97694961
  PAW double counting   =      1641.89683898    -1608.88133722
  entropy T*S    EENTRO =        -0.00081662
  eigenvalues    EBANDS =      -283.82315392
  atomic energy  EATOM  =      2094.39351137
  Solvation  Ediel_sol  =         0.00000000
  ---------------------------------------------------
  free energy    TOTEN  =       -24.58274080 eV

  energy without entropy =      -24.58192418  energy(sigma->0) =      -24.58246860


--------------------------------------------------------------------------------------------------------




--------------------------------------- Iteration      1(   5)  ---------------------------------------


     EDDAV:  cpu time      0.3203: real time      0.3351
       DOS:  cpu time      0.0008: real time      0.0008
    CHARGE:  cpu time      0.0177: real time      0.0221
    MIXING:  cpu time      0.0030: real time      0.0056
    --------------------------------------------
      LOOP:  cpu time      0.3417: real time      0.3636

 eigenvalue-minimisations  :  2340
 total energy-change (2. order) :-0.1497830E-03  (-0.1497804E-03)
 number of electron      21.9999997 magnetization 
 augmentation part        6.5426975 magnetization 

 Broyden mixing:
  rms(total) = 0.18544E+01    rms(broyden)= 0.18544E+01
  rms(prec ) = 0.23139E+01
  weight for this iteration     100.00

 Free energy of the ion-electron system (eV)
  ---------------------------------------------------
  alpha Z        PSCENC =       250.27956962
  Ewald energy   TEWEN  =     -1909.12746107
  -Hartree energ DENC   =      -256.29684155
  -exchange      EXHF   =         0.00000000
  -V(xc)+E(xc)   XCENC  =        46.97694961
  PAW double counting   =      1641.89683898    -1608.88133722
  entropy T*S    EENTRO =        -0.00081713
  eigenvalues    EBANDS =      -283.82330319
  atomic energy  EATOM  =      2094.39351137
  Solvation  Ediel_sol  =         0.00000000
  ---------------------------------------------------
  free energy    TOTEN  =       -24.58289058 eV

  energy without entropy =      -24.58207346  energy(sigma->0) =      -24.58261821


--------------------------------------------------------------------------------------------------------




--------------------------------------- Iteration      1(   6)  ---------------------------------------


    POTLOK:  cpu time      0.0060: real time      0.0194
    SETDIJ:  cpu time      0.1123: real time      0.1126
     EDDAV:  cpu time      0.3139: real time      0.3147
       DOS:  cpu time      0.0006: real time      0.0006
    CHARGE:  cpu time      0.0107: real time      0.0107
    MIXING:  cpu time      0.0007: real time      0.0017
    --------------------------------------------
      LOOP:  cpu time      0.4443: real time      0.4598

 eigenvalue-minimisations  :  2232
 total energy-change (2. order) : 0.7263885E+00  (-0.7818476E-01)
 number of electron      21.9999997 magnetization 
 augmentation part        6.6486129 magnetization 

 Broyden mixing:
  rms(total) = 0.89577E+00    rms(broyden)= 0.89577E+00
  rms(prec ) = 0.11232E+01
  weight for this iteration     100.00

 eigenvalues of (default mixing * dielectric matrix)
  average eigenvalue GAMMA=   1.9286
  1.9286

 Free energy of the ion-electron system (eV)
  ---------------------------------------------------
  alpha Z        PSCENC =       250.27956962
  Ewald energy   TEWEN  =     -1909.12746107
  -Hartree energ DENC   =      -239.56028964
  -exchange      EXHF   =         0.00000000
  -V(xc)+E(xc)   XCENC  =        46.16852258
  PAW double counting   =      2239.11191494    -2208.86400653
  entropy T*S    EENTRO =         0.00178858
  eigenvalues    EBANDS =      -296.26005189
  atomic energy  EATOM  =      2094.39351137
  Solvation  Ediel_sol  =         0.00000000
  ---------------------------------------------------
  free energy    TOTEN  =       -23.85650204 eV

  energy without entropy =      -23.85829062  energy(sigma->0) =      -23.85709823


--------------------------------------------------------------------------------------------------------




--------------------------------------- Iteration      1(   7)  ---------------------------------------


    POTLOK:  cpu time      0.0176: real time      0.0180
    SETDIJ:  cpu time      0.1114: real time      0.1117
     EDDAV:  cpu time      0.3333: real time      0.3344
       DOS:  cpu time      0.0008: real time      0.0008
    CHARGE:  cpu time      0.0107: real time      0.0108
    MIXING:  cpu time      0.0007: real time      0.0011
    --------------------------------------------
      LOOP:  cpu time      0.4745: real time      0.4767

 eigenvalue-minimisations  :  2280
 total energy-change (2. order) : 0.2248785E+00  (-0.6672136E-01)
 number of electron      21.9999997 magnetization 
 augmentation part        6.7463922 magnetization 

 Broyden mixing:
  rms(total) = 0.51147E-01    rms(broyden)= 0.51146E-01
  rms(prec ) = 0.90976E-01
  weight for this iteration     100.00

 eigenvalues of (default mixing * dielectric matrix)
  average eigenvalue GAMMA=   2.1405
  1.8433  2.4376

 Free energy of the ion-electron system (eV)
  ---------------------------------------------------
  alpha Z        PSCENC =       250.27956962
  Ewald energy   TEWEN  =     -1909.12746107
  -Hartree energ DENC   =      -224.90237965
  -exchange      EXHF   =         0.00000000
  -V(xc)+E(xc)   XCENC  =        45.48174215
  PAW double counting   =      2993.04669654    -2965.49091551
  entropy T*S    EENTRO =         0.00034397
  eigenvalues    EBANDS =      -307.31273092
  atomic energy  EATOM  =      2094.39351137
  Solvation  Ediel_sol  =         0.00000000
  ---------------------------------------------------
  free energy    TOTEN  =       -23.63162350 eV

  energy without entropy =      -23.63196747  energy(sigma->0) =      -23.63173816


--------------------------------------------------------------------------------------------------------




--------------------------------------- Iteration      1(   8)  ---------------------------------------


    POTLOK:  cpu time      0.0049: real time      0.0181
    SETDIJ:  cpu time      0.1122: real time      0.1125
     EDDAV:  cpu time      0.3104: real time      0.3111
       DOS:  cpu time      0.0007: real time      0.0007
    CHARGE:  cpu time      0.0103: real time      0.0103
    MIXING:  cpu time      0.0004: real time      0.0006
    --------------------------------------------
      LOOP:  cpu time      0.4389: real time      0.4533

 eigenvalue-minimisations  :  2238
 total energy-change (2. order) : 0.2600271E-02  (-0.7622399E-03)
 number of electron      21.9999997 magnetization 
 augmentation part        6.7392995 magnetization 

 Broyden mixing:
  rms(total) = 0.15478E-01    rms(broyden)= 0.15478E-01
  rms(prec ) = 0.20607E-01
  weight for this iteration     100.00

 eigenvalues of (default mixing * dielectric matrix)
  average eigenvalue GAMMA=   1.8592
  1.1658  1.8134  2.5983

 Free energy of the ion-electron system (eV)
  ---------------------------------------------------
  alpha Z        PSCENC =       250.27956962
  Ewald energy   TEWEN  =     -1909.12746107
  -Hartree energ DENC   =      -225.54509477
  -exchange      EXHF   =         0.00000000
  -V(xc)+E(xc)   XCENC  =        45.51882766
  PAW double counting   =      3112.66091329    -3085.30692658
  entropy T*S    EENTRO =         0.00033211
  eigenvalues    EBANDS =      -306.50269486
  atomic energy  EATOM  =      2094.39351137
  Solvation  Ediel_sol  =         0.00000000
  ---------------------------------------------------
  free energy    TOTEN  =       -23.62902323 eV

  energy without entropy =      -23.62935534  energy(sigma->0) =      -23.62913393


--------------------------------------------------------------------------------------------------------




--------------------------------------- Iteration      1(   9)  ---------------------------------------


    POTLOK:  cpu time      0.0050: real time      0.0174
    SETDIJ:  cpu time      0.1115: real time      0.1118
     EDDAV:  cpu time      0.3036: real time      0.3043
       DOS:  cpu time      0.0007: real time      0.0007
    CHARGE:  cpu time      0.0102: real time      0.0102
    MIXING:  cpu time      0.0003: real time      0.0003
    --------------------------------------------
      LOOP:  cpu time      0.4312: real time      0.4447

 eigenvalue-minimisations  :  2262
 total energy-change (2. order) : 0.1760024E-05  (-0.2156988E-04)
 number of electron      21.9999997 magnetization 
 augmentation part        6.7407763 magnetization 

 Broyden mixing:
  rms(total) = 0.42426E-02    rms(broyden)= 0.42426E-02
  rms(prec ) = 0.44769E-02
  weight for this iteration     100.00

 eigenvalues of (default mixing * dielectric matrix)
  average eigenvalue GAMMA=   2.1949
  3.4419  0.9897  2.5404  1.8074

 Free energy of the ion-electron system (eV)
  ---------------------------------------------------
  alpha Z        PSCENC =       250.27956962
  Ewald energy   TEWEN  =     -1909.12746107
  -Hartree energ DENC   =      -225.34057206
  -exchange      EXHF   =         0.00000000
  -V(xc)+E(xc)   XCENC  =        45.51032362
  PAW double counting   =      3145.28533640    -3117.97345107
  entropy T*S    EENTRO =         0.00031801
  eigenvalues    EBANDS =      -306.65659628
  atomic energy  EATOM  =      2094.39351137
  Solvation  Ediel_sol  =         0.00000000
  ---------------------------------------------------
  free energy    TOTEN  =       -23.62902147 eV

  energy without entropy =      -23.62933948  energy(sigma->0) =      -23.62912747


--------------------------------------------------------------------------------------------------------




--------------------------------------- Iteration      1(  10)  ---------------------------------------


    POTLOK:  cpu time      0.0052: real time      0.0180
    SETDIJ:  cpu time      0.1113: real time      0.1116
     EDDAV:  cpu time      0.2334: real time      0.2342
       DOS:  cpu time      0.0007: real time      0.0007
    CHARGE:  cpu time      0.0095: real time      0.0096
    MIXING:  cpu time      0.0003: real time      0.0003
    --------------------------------------------
      LOOP:  cpu time      0.3605: real time      0.3744

 eigenvalue-minimisations  :  1350
 total energy-change (2. order) : 0.1351892E-04  (-0.1090565E-05)
 number of electron      21.9999997 magnetization 
 augmentation part        6.7411614 magnetization 

 Broyden mixing:
  rms(total) = 0.10242E-02    rms(broyden)= 0.10242E-02
  rms(prec ) = 0.11425E-02
  weight for this iteration     100.00

 eigenvalues of (default mixing * dielectric matrix)
  average eigenvalue GAMMA=   1.7744
  2.6627  2.4862  1.7890  0.9951  0.9392

 Free energy of the ion-electron system (eV)
  ---------------------------------------------------
  alpha Z        PSCENC =       250.27956962
  Ewald energy   TEWEN  =     -1909.12746107
  -Hartree energ DENC   =      -225.34635173
  -exchange      EXHF   =         0.00000000
  -V(xc)+E(xc)   XCENC  =        45.51064547
  PAW double counting   =      3158.65334095    -3131.29289684
  entropy T*S    EENTRO =         0.00031706
  eigenvalues    EBANDS =      -306.69968279
  atomic energy  EATOM  =      2094.39351137
  Solvation  Ediel_sol  =         0.00000000
  ---------------------------------------------------
  free energy    TOTEN  =       -23.62900795 eV

  energy without entropy =      -23.62932501  energy(sigma->0) =      -23.62911363


--------------------------------------------------------------------------------------------------------




--------------------------------------- Iteration      1(  11)  ---------------------------------------


    POTLOK:  cpu time      0.0052: real time      0.0179
    SETDIJ:  cpu time      0.1112: real time      0.1115
     EDDAV:  cpu time      0.2144: real time      0.2149
       DOS:  cpu time      0.0007: real time      0.0007
    --------------------------------------------
      LOOP:  cpu time      0.3315: real time      0.3450

 eigenvalue-minimisations  :  1098
 total energy-change (2. order) :-0.1146637E-05  (-0.1205527E-06)
 number of electron      21.9999997 magnetization 
 augmentation part        6.7411614 magnetization 

 Free energy of the ion-electron system (eV)
  ---------------------------------------------------
  alpha Z        PSCENC =       250.27956962
  Ewald energy   TEWEN  =     -1909.12746107
  -Hartree energ DENC   =      -225.35131770
  -exchange      EXHF   =         0.00000000
  -V(xc)+E(xc)   XCENC  =        45.51085167
  PAW double counting   =      3155.47327992    -3128.12093812
  entropy T*S    EENTRO =         0.00031756
  eigenvalues    EBANDS =      -306.68682234
  atomic energy  EATOM  =      2094.39351137
  Solvation  Ediel_sol  =         0.00000000
  ---------------------------------------------------
  free energy    TOTEN  =       -23.62900909 eV

  energy without entropy =      -23.62932665  energy(sigma->0) =      -23.62911495


--------------------------------------------------------------------------------------------------------




 average (electrostatic) potential at core
  the test charge radii are     1.1760
  (the norm of the test charge is              1.0000)
       1 -36.6472       2 -36.6472
 
 
 
 E-fermi :   5.3320     XC(G=0): -12.5336     alpha+bet :-13.0752

 Fermi energy:         5.3319718711

 k-point     1 :       0.0000    0.0000    0.0000
  band No.  band energies     occupation 
      1     -28.5781      2.00000
      2     -28.5781      2.00000
      3     -28.5781      2.00000
      4     -27.8030      2.00000
      5     -27.8030      2.00000
      6     -27.8030      2.00000
      7      -2.5013      2.00000
      8       1.6453      2.00000
      9       1.6453      2.00000
     10       6.0766     -0.00000
     11       6.0766     -0.00000
     12       6.0766     -0.00000
     13       9.2909      0.00000
     14       9.2909      0.00000
     15      12.0378      0.00000
     16      12.0378      0.00000
     17      12.0378      0.00000
     18      13.8505      0.00000

 k-point     2 :       0.1000   -0.0000    0.0000
  band No.  band energies     occupation 
      1     -28.5786      2.00000
      2     -28.5585      2.00000
      3     -28.5585      2.00000
      4     -27.8436      2.00000
      5     -27.8213      2.00000
      6     -27.8213      2.00000
      7      -2.2821      2.00000
      8       1.7627      2.00000
      9       1.8089      2.00000
     10       6.0450     -0.00000
     11       6.0450     -0.00000
     12       6.1805     -0.00000
     13       8.9266      0.00000
     14       9.4148      0.00000
     15      10.9202      0.00000
     16      10.9202      0.00000
     17      11.8129      0.00000
     18      13.1302      0.00000

 k-point     3 :       0.2000   -0.0000    0.0000
  band No.  band energies     occupation 
      1     -28.5748      2.00000
      2     -28.5019      2.00000
      3     -28.5019      2.00000
      4     -27.9540      2.00000
      5     -27.8745      2.00000
      6     -27.8745      2.00000
      7      -1.6507      2.00000
      8       2.1130      2.00000
      9       2.2163      2.00000
     10       5.9903     -0.00000
     11       5.9903     -0.00000
     12       6.4888     -0.00000
     13       8.0018     -0.00000
     14       9.4601      0.00000
     15       9.4601      0.00000
     16       9.7525      0.00000
     17      11.2029      0.00000
     18      11.7180      0.00000

 k-point     4 :       0.3000   -0.0000    0.0000
  band No.  band energies     occupation 
      1     -28.5531      2.00000
      2     -28.4142      2.00000
      3     -28.4142      2.00000
      4     -28.1060      2.00000
      5     -27.9580      2.00000
      6     -27.9580      2.00000
      7      -0.6847      2.00000
      8       2.5813      2.00000
      9       2.6895      2.00000
     10       6.0043     -0.00000
     11       6.0043     -0.00000
     12       6.8188     -0.00000
     13       6.9915     -0.00000
     14       8.2227      0.00000
     15       8.2227      0.00000
     16      10.1781      0.00000
     17      10.3539      0.00000
     18      10.5210      0.00000

 k-point     5 :       0.4000   -0.0000    0.0000
  band No.  band energies     occupation 
      1     -28.4983      2.00000
      2     -28.3044      2.00000
      3     -28.3044      2.00000
      4     -28.2649      2.00000
      5     -28.0644      2.00000
      6     -28.0644      2.00000
      7       0.4844      2.00000
      8       2.4478      2.00000
      9       3.4797      2.00000
     10       5.5973     -0.00114
     11       6.1803     -0.00000
     12       6.1803     -0.00000
     13       7.2624     -0.00000
     14       7.2624     -0.00000
     15       7.6700     -0.00000
     16       9.4134      0.00000
     17      10.0661      0.00000
     18      10.4282      0.00000

 k-point     6 :       0.5000   -0.0000    0.0000
  band No.  band energies     occupation 
      1     -28.4013      2.00000
      2     -28.4013      2.00000
      3     -28.1837      2.00000
      4     -28.1837      2.00000
      5     -28.1837      2.00000
      6     -28.1837      2.00000
      7       1.6433      2.00000
      8       1.6433      2.00000
      9       4.4617      2.00000
     10       4.4617      2.00000
     11       6.5866     -0.00000
     12       6.5866     -0.00000
     13       6.5866     -0.00000
     14       6.5866     -0.00000
     15       8.4936      0.00000
     16       8.4936      0.00000
     17      10.2719      0.00000
     18      10.2719      0.00000

 k-point     7 :       0.1000    0.1000    0.0000
  band No.  band energies     occupation 
      1     -28.6108      2.00000
      2     -28.5398      2.00000
      3     -28.5087      2.00000
      4     -27.9173      2.00000
      5     -27.8385      2.00000
      6     -27.8036      2.00000
      7      -2.0702      2.00000
      8       1.8921      2.00000
      9       1.9562      2.00000
     10       5.8040     -0.00000
     11       5.9777     -0.00000
     12       6.5028     -0.00000
     13       8.9031      0.00000
     14       9.2962      0.00000
     15       9.9837      0.00000
     16       9.9856      0.00000
     17      12.1203      0.00000
     18      13.8065      0.00000

 k-point     8 :       0.2000    0.1000    0.0000
  band No.  band energies     occupation 
      1     -28.6326      2.00000
      2     -28.4855      2.00000
      3     -28.4305      2.00000
      4     -28.0492      2.00000
      5     -27.8886      2.00000
      6     -27.8279      2.00000
      7      -1.4621      2.00000
      8       2.2138      2.00000
      9       2.3731      2.00000
     10       5.5978     -0.00111
     11       5.8243     -0.00000
     12       6.9837     -0.00000
     13       8.2541      0.00000
     14       8.6799      0.00000
     15       8.6894      0.00000
     16       9.5945      0.00000
     17      11.8241      0.00000
     18      12.6402      0.00000

 k-point     9 :       0.3000    0.1000    0.0000
  band No.  band energies     occupation 
      1     -28.6279      2.00000
      2     -28.4016      2.00000
      3     -28.3324      2.00000
      4     -28.2085      2.00000
      5     -27.9676      2.00000
      6     -27.8933      2.00000
      7      -0.5377      2.00000
      8       2.6084      2.00000
      9       2.8601      2.00000
     10       5.5276     -0.01835
     11       5.6219     -0.00032
     12       7.3870     -0.00000
     13       7.5460     -0.00000
     14       7.5922     -0.00000
     15       7.7207     -0.00000
     16      10.0687      0.00000
     17      11.0619      0.00000
     18      11.2418      0.00000

 k-point    10 :       0.4000    0.1000    0.0000
  band No.  band energies     occupation 
      1     -28.5852      2.00000
      2     -28.3665      2.00000
      3     -28.2967      2.00000
      4     -28.2196      2.00000
      5     -28.0684      2.00000
      6     -27.9883      2.00000
      7       0.5717      2.00000
      8       2.4670      2.00000
      9       3.5389      2.00000
     10       5.1736      2.04761
     11       5.6516     -0.00006
     12       6.6462     -0.00000
     13       6.8708     -0.00000
     14       7.2309     -0.00000
     15       8.3351      0.00000
     16      10.1343      0.00000
     17      10.3755      0.00000
     18      10.4153      0.00000

 k-point    11 :       0.5000    0.1000    0.0000
  band No.  band energies     occupation 
      1     -28.4971      2.00000
      2     -28.4971      2.00000
      3     -28.1818      2.00000
      4     -28.1818      2.00000
      5     -28.1011      2.00000
      6     -28.1011      2.00000
      7       1.6716      2.00000
      8       1.6716      2.00000
      9       4.3758      2.00000
     10       4.3758      2.00000
     11       6.0158     -0.00000
     12       6.0158     -0.00000
     13       6.9382     -0.00000
     14       6.9382     -0.00000
     15       9.1972      0.00000
     16       9.1972      0.00000
     17      10.3347      0.00000
     18      10.3347      0.00000

 k-point    12 :       0.2000    0.2000    0.0000
  band No.  band energies     occupation 
      1     -28.6955      2.00000
      2     -28.4382      2.00000
      3     -28.3233      2.00000
      4     -28.2073      2.00000
      5     -27.9301      2.00000
      6     -27.8051      2.00000
      7      -0.9287      2.00000
      8       2.3986      2.00000
      9       2.8538      2.00000
     10       5.1687      2.04315
     11       5.5225     -0.02143
     12       7.5167     -0.00000
     13       7.6354     -0.00000
     14       7.7379     -0.00000
     15       8.6086      0.00000
     16       9.3744      0.00000
     17      12.3423      0.00000
     18      13.5055      0.00000

 k-point    13 :       0.3000    0.2000    0.0000
  band No.  band energies     occupation 
      1     -28.7278      2.00000
      2     -28.3781      2.00000
      3     -28.3653      2.00000
      4     -28.2080      2.00000
      5     -27.9958      2.00000
      6     -27.8285      2.00000
      7      -0.1442      2.00000
      8       2.5145      2.00000
      9       3.4472      2.00000
     10       4.9184      2.00000
     11       5.2609      1.92683
     12       6.4784     -0.00000
     13       7.1152     -0.00000
     14       8.2737      0.00000
     15       8.5771      0.00000
     16       9.7865      0.00000
     17      12.1004      0.00000
     18      12.3893      0.00000

 k-point    14 :       0.4000    0.2000    0.0000
  band No.  band energies     occupation 
      1     -28.7153      2.00000
      2     -28.5333      2.00000
      3     -28.2749      2.00000
      4     -28.0916      2.00000
      5     -28.0805      2.00000
      6     -27.8912      2.00000
      7       0.7539      2.00000
      8       2.2671      2.00000
      9       4.0057      2.00000
     10       4.9015      2.00000
     11       4.9833      2.00001
     12       5.6781     -0.00001
     13       7.3045     -0.00000
     14       7.8781     -0.00000
     15       9.4847      0.00000
     16      10.2204      0.00000
     17      11.1303      0.00000
     18      11.3599      0.00000

 k-point    15 :       0.5000    0.2000    0.0000
  band No.  band energies     occupation 
      1     -28.6500      2.00000
      2     -28.6500      2.00000
      3     -28.1766      2.00000
      4     -28.1766      2.00000
      5     -27.9826      2.00000
      6     -27.9826      2.00000
      7       1.6131      2.00000
      8       1.6131      2.00000
      9       4.5499      2.00000
     10       4.5499      2.00000
     11       5.1503      2.02759
     12       5.1503      2.02759
     13       7.6624     -0.00000
     14       7.6624     -0.00000
     15      10.4350      0.00000
     16      10.4350      0.00000
     17      10.4743      0.00000
     18      10.4743      0.00000

 k-point    16 :       0.3000    0.3000    0.0000
  band No.  band energies     occupation 
      1     -28.7985      2.00000
      2     -28.5489      2.00000
      3     -28.3100      2.00000
      4     -28.0861      2.00000
      5     -28.0413      2.00000
      6     -27.8071      2.00000
      7       0.3726      2.00000
      8       2.2526      2.00000
      9       4.2296      2.00000
     10       4.4979      2.00000
     11       5.2019      2.06931
     12       5.5450     -0.01027
     13       7.0576     -0.00000
     14       8.9118      0.00000
     15       9.6161      0.00000
     16       9.6317      0.00000
     17      12.6106      0.00000
     18      12.6299      0.00000

 k-point    17 :       0.4000    0.3000    0.0000
  band No.  band energies     occupation 
      1     -28.8215      2.00000
      2     -28.6918      2.00000
      3     -28.2424      2.00000
      4     -28.1009      2.00000
      5     -27.9768      2.00000
      6     -27.8290      2.00000
      7       0.8909      2.00000
      8       1.8431      2.00000
      9       4.3311      2.00000
     10       4.8554      2.00000
     11       4.9083      2.00000
     12       5.3324      0.99199
     13       7.6403     -0.00000
     14       8.7949      0.00000
     15      10.0089      0.00000
     16      10.6857      0.00000
     17      11.5592      0.00000
     18      12.4051      0.00000

 k-point    18 :       0.5000    0.3000    0.0000
  band No.  band energies     occupation 
      1     -28.7862      2.00000
      2     -28.7862      2.00000
      3     -28.1701      2.00000
      4     -28.1701      2.00000
      5     -27.8883      2.00000
      6     -27.8883      2.00000
      7       1.3763      2.00000
      8       1.3763      2.00000
      9       4.4472      2.00000
     10       4.4472      2.00000
     11       5.2980      1.54012
     12       5.2980      1.54012
     13       8.3977      0.00000
     14       8.3977      0.00000
     15      10.5419      0.00000
     16      10.5419      0.00000
     17      11.6617      0.00000
     18      11.6617      0.00000

 k-point    19 :       0.4000    0.4000    0.0000
  band No.  band energies     occupation 
      1     -28.8805      2.00000
      2     -28.8131      2.00000
      3     -28.2040      2.00000
      4     -28.1296      2.00000
      5     -27.8871      2.00000
      6     -27.8087      2.00000
      7       0.9825      2.00000
      8       1.4298      2.00000
      9       4.0212      2.00000
     10       4.2845      2.00000
     11       5.8486     -0.00000
     12       5.9933     -0.00000
     13       8.2533      0.00000
     14       9.2252      0.00000
     15       9.9729      0.00000
     16      11.1607      0.00000
     17      11.7859      0.00000
     18      12.8745      0.00000

 k-point    20 :       0.5000    0.4000    0.0000
  band No.  band energies     occupation 
      1     -28.8787      2.00000
      2     -28.8787      2.00000
      3     -28.1649      2.00000
      4     -28.1649      2.00000
      5     -27.8293      2.00000
      6     -27.8293      2.00000
      7       1.1388      2.00000
      8       1.1388      2.00000
      9       4.0028      2.00000
     10       4.0028      2.00000
     11       6.3112     -0.00000
     12       6.3112     -0.00000
     13       8.9504      0.00000
     14       8.9504      0.00000
     15      10.3707      0.00000
     16      10.3707      0.00000
     17      12.6042      0.00000
     18      12.6042      0.00000

 k-point    21 :       0.5000    0.5000    0.0000
  band No.  band energies     occupation 
      1     -28.9115      2.00000
      2     -28.9115      2.00000
      3     -28.1629      2.00000
      4     -28.1629      2.00000
      5     -27.8094      2.00000
      6     -27.8094      2.00000
      7       1.0456      2.00000
      8       1.0456      2.00000
      9       3.8514      2.00000
     10       3.8514      2.00000
     11       6.8608     -0.00000
     12       6.8608     -0.00000
     13       9.1612      0.00000
     14       9.1612      0.00000
     15      10.1672      0.00000
     16      10.1672      0.00000
     17      12.9710      0.00000
     18      12.9710      0.00000

 k-point    22 :       0.1000    0.1000    0.1000
  band No.  band energies     occupation 
      1     -28.5905      2.00000
      2     -28.5905      2.00000
      3     -28.4440      2.00000
      4     -27.9839      2.00000
      5     -27.8227      2.00000
      6     -27.8227      2.00000
      7      -1.8639      2.00000
      8       2.0615      2.00000
      9       2.0615      2.00000
     10       5.7314     -0.00000
     11       5.7314     -0.00000
     12       6.8311     -0.00000
     13       8.6136      0.00000
     14       9.0603      0.00000
     15       9.0603      0.00000
     16      11.0151      0.00000
     17      11.0151      0.00000
     18      15.1473      0.00000

 k-point    23 :       0.2000    0.1000    0.1000
  band No.  band energies     occupation 
      1     -28.6346      2.00000
      2     -28.5318      2.00000
      3     -28.3544      2.00000
      4     -28.1169      2.00000
      5     -27.8783      2.00000
      6     -27.8308      2.00000
      7      -1.2734      2.00000
      8       2.3723      2.00000
      9       2.4765      2.00000
     10       5.4512     -0.07059
     11       5.5450     -0.01025
     12       7.3593     -0.00000
     13       7.4007     -0.00000
     14       8.4458      0.00000
     15       9.4755      0.00000
     16       9.6048      0.00000
     17      11.0658      0.00000
     18      13.8156      0.00000

 k-point    24 :       0.3000    0.1000    0.1000
  band No.  band energies     occupation 
      1     -28.6492      2.00000
      2     -28.4406      2.00000
      3     -28.2742      2.00000
      4     -28.2544      2.00000
      5     -27.9655      2.00000
      6     -27.8757      2.00000
      7      -0.3818      2.00000
      8       2.8004      2.00000
      9       2.8718      2.00000
     10       5.2808      1.75311
     11       5.3469      0.74996
     12       6.4888     -0.00000
     13       7.7012     -0.00000
     14       8.0891      0.00000
     15       8.4420      0.00000
     16       9.9854      0.00000
     17      10.3980      0.00000
     18      12.4861      0.00000

 k-point    25 :       0.4000    0.1000    0.1000
  band No.  band energies     occupation 
      1     -28.6223      2.00000
      2     -28.4259      2.00000
      3     -28.3265      2.00000
      4     -28.1486      2.00000
      5     -28.0765      2.00000
      6     -27.9500      2.00000
      7       0.6791      2.00000
      8       2.5500      2.00000
      9       3.5226      2.00000
     10       4.8721      2.00000
     11       5.4729     -0.06286
     12       6.0927     -0.00000
     13       7.1760     -0.00000
     14       7.6017     -0.00000
     15       8.8788      0.00000
     16       9.8440      0.00000
     17      10.3385      0.00000
     18      11.3185      0.00000

 k-point    26 :       0.5000    0.1000    0.1000
  band No.  band energies     occupation 
      1     -28.5469      2.00000
      2     -28.5469      2.00000
      3     -28.2009      2.00000
      4     -28.2009      2.00000
      5     -28.0442      2.00000
      6     -28.0442      2.00000
      7       1.7345      2.00000
      8       1.7345      2.00000
      9       4.2424      2.00000
     10       4.2424      2.00000
     11       5.7826     -0.00000
     12       5.7826     -0.00000
     13       7.1469     -0.00000
     14       7.1469     -0.00000
     15       9.5781      0.00000
     16       9.5781      0.00000
     17      10.5338      0.00000
     18      10.5338      0.00000

 k-point    27 :       0.2000    0.2000    0.1000
  band No.  band energies     occupation 
      1     -28.6734      2.00000
      2     -28.5112      2.00000
      3     -28.2560      2.00000
      4     -28.2506      2.00000
      5     -27.9132      2.00000
      6     -27.8264      2.00000
      7      -0.7414      2.00000
      8       2.6011      2.00000
      9       2.9210      2.00000
     10       5.0673      2.00118
     11       5.2498      1.99099
     12       6.2127     -0.00000
     13       8.1635      0.00000
     14       8.7457      0.00000
     15       8.9511      0.00000
     16       9.3238      0.00000
     17      11.2342      0.00000
     18      14.8282      0.00000

 k-point    28 :       0.3000    0.2000    0.1000
  band No.  band energies     occupation 
      1     -28.7117      2.00000
      2     -28.4308      2.00000
      3     -28.4123      2.00000
      4     -28.1463      2.00000
      5     -27.9890      2.00000
      6     -27.8432      2.00000
      7       0.0356      2.00000
      8       2.7370      2.00000
      9       3.4419      2.00000
     10       4.7977      2.00000
     11       5.0201      2.00009
     12       5.5456     -0.01004
     13       8.1205      0.00000
     14       8.3966      0.00000
     15       9.0524      0.00000
     16       9.7651      0.00000
     17      10.9321      0.00000
     18      13.7317      0.00000

 k-point    29 :       0.4000    0.2000    0.1000
  band No.  band energies     occupation 
      1     -28.7106      2.00000
      2     -28.5541      2.00000
      3     -28.3237      2.00000
      4     -28.0900      2.00000
      5     -28.0474      2.00000
      6     -27.8894      2.00000
      7       0.9145      2.00000
      8       2.4428      2.00000
      9       3.8563      2.00000
     10       4.5789      2.00000
     11       5.0004      2.00003
     12       5.3900      0.17815
     13       7.7733     -0.00000
     14       7.9950     -0.00000
     15       9.8959      0.00000
     16      10.2797      0.00000
     17      10.3053      0.00000
     18      12.4666      0.00000

 k-point    30 :       0.5000    0.2000    0.1000
  band No.  band energies     occupation 
      1     -28.6579      2.00000
      2     -28.6579      2.00000
      3     -28.2056      2.00000
      4     -28.2056      2.00000
      5     -27.9596      2.00000
      6     -27.9596      2.00000
      7       1.7566      2.00000
      8       1.7566      2.00000
      9       4.2601      2.00000
     10       4.2601      2.00000
     11       5.2019      2.06931
     12       5.2019      2.06931
     13       7.8074     -0.00000
     14       7.8074     -0.00000
     15      10.0711      0.00000
     16      10.0711      0.00000
     17      11.2613      0.00000
     18      11.2613      0.00000

 k-point    31 :       0.3000    0.3000    0.1000
  band No.  band energies     occupation 
      1     -28.7741      2.00000
      2     -28.5623      2.00000
      3     -28.3710      2.00000
      4     -28.0453      2.00000
      5     -28.0395      2.00000
      6     -27.8310      2.00000
      7       0.5781      2.00000
      8       2.4615      2.00000
      9       4.2263      2.00000
     10       4.4181      2.00000
     11       4.9472      2.00000
     12       4.9492      2.00000
     13       7.7679     -0.00000
     14       8.9572      0.00000
     15       9.6461      0.00000
     16      10.1108      0.00000
     17      11.3295      0.00000
     18      14.1111      0.00000

 k-point    32 :       0.4000    0.3000    0.1000
  band No.  band energies     occupation 
      1     -28.8000      2.00000
      2     -28.6899      2.00000
      3     -28.2876      2.00000
      4     -28.1108      2.00000
      5     -27.9590      2.00000
      6     -27.8479      2.00000
      7       1.1020      2.00000
      8       2.0352      2.00000
      9       4.2423      2.00000
     10       4.4676      2.00000
     11       5.0019      2.00003
     12       5.1204      2.01082
     13       7.9959     -0.00000
     14       8.8457      0.00000
     15      10.0060      0.00000
     16      10.8813      0.00000
     17      11.1689      0.00000
     18      13.3135      0.00000

[...]
     16      10.3373      0.00000
     17      11.1500      0.00000
     18      14.8712      0.00000

 k-point    42 :       0.4000    0.3000    0.2000
  band No.  band energies     occupation 
      1     -28.7407      2.00000
      2     -28.6880      2.00000
      3     -28.3807      2.00000
      4     -28.1308      2.00000
      5     -27.9375      2.00000
      6     -27.9026      2.00000
      7       1.6830      2.00000
      8       2.5056      2.00000
      9       4.0457      2.00000
     10       4.0619      2.00000
     11       4.6247      2.00000
     12       4.8686      2.00000
     13       8.7580      0.00000
     14       9.1137      0.00000
     15      10.0244      0.00000
     16      10.2391      0.00000
     17      12.2364      0.00000
     18      14.5920      0.00000

 k-point    43 :       0.5000    0.3000    0.2000
  band No.  band energies     occupation 
      1     -28.7385      2.00000
      2     -28.7385      2.00000
      3     -28.2547      2.00000
      4     -28.2547      2.00000
      5     -27.9113      2.00000
      6     -27.9113      2.00000
      7       2.0858      2.00000
      8       2.0858      2.00000
      9       4.0119      2.00000
     10       4.0119      2.00000
     11       4.9595      2.00000
     12       4.9595      2.00000
     13       8.9125      0.00000
     14       8.9125      0.00000
     15      10.1286      0.00000
     16      10.1286      0.00000
     17      13.3632      0.00000
     18      13.3632      0.00000

 k-point    44 :       0.4000    0.4000    0.2000
  band No.  band energies     occupation 
      1     -28.7784      2.00000
      2     -28.7543      2.00000
      3     -28.3204      2.00000
      4     -28.1728      2.00000
      5     -27.9163      2.00000
      6     -27.9108      2.00000
      7       1.8564      2.00000
      8       2.1752      2.00000
      9       3.8713      2.00000
     10       3.9935      2.00000
     11       5.1206      2.01087
     12       5.3692      0.41620
     13       9.0293      0.00000
     14       9.4745      0.00000
     15      10.0680      0.00000
     16      10.3823      0.00000
     17      13.2583      0.00000
     18      14.6678      0.00000

 k-point    45 :       0.5000    0.4000    0.2000
  band No.  band energies     occupation 
      1     -28.7872      2.00000
      2     -28.7872      2.00000
      3     -28.2413      2.00000
      4     -28.2413      2.00000
      5     -27.9118      2.00000
      6     -27.9118      2.00000
      7       1.9675      2.00000
      8       1.9675      2.00000
      9       3.8489      2.00000
     10       3.8489      2.00000
     11       5.5670     -0.00440
     12       5.5670     -0.00440
     13       9.3597      0.00000
     14       9.3597      0.00000
     15      10.2221      0.00000
     16      10.2221      0.00000
     17      14.0716      0.00000
     18      14.0716      0.00000

 k-point    46 :       0.5000    0.5000    0.2000
  band No.  band energies     occupation 
      1     -28.8068      2.00000
      2     -28.8068      2.00000
      3     -28.2324      2.00000
      4     -28.2324      2.00000
      5     -27.9147      2.00000
      6     -27.9147      2.00000
      7       1.9064      2.00000
      8       1.9064      2.00000
      9       3.7505      2.00000
     10       3.7505      2.00000
     11       5.9571     -0.00000
     12       5.9571     -0.00000
     13       9.5117      0.00000
     14       9.5117      0.00000
     15      10.2234      0.00000
     16      10.2234      0.00000
     17      14.2977      0.00000
     18      14.2977      0.00000

 k-point    47 :       0.3000    0.3000    0.3000
  band No.  band energies     occupation 
      1     -28.6502      2.00000
      2     -28.5931      2.00000
      3     -28.5931      2.00000
      4     -28.0096      2.00000
      5     -28.0096      2.00000
      6     -27.9492      2.00000
      7       1.8959      2.00000
      8       3.1587      2.00000
      9       4.0491      2.00000
     10       4.0491      2.00000
     11       4.1408      2.00000
     12       4.1408      2.00000
     13       9.6553      0.00000
     14       9.6553      0.00000
     15       9.7063      0.00000
     16       9.7063      0.00000
     17      12.3420      0.00000
     18      14.2018      0.00000

 k-point    48 :       0.4000    0.3000    0.3000
  band No.  band energies     occupation 
      1     -28.6920      2.00000
      2     -28.6701      2.00000
      3     -28.4542      2.00000
      4     -28.1473      2.00000
      5     -27.9808      2.00000
      6     -27.9402      2.00000
      7       2.4195      2.00000
      8       2.8122      2.00000
      9       3.9491      2.00000
     10       4.0417      2.00000
     11       4.1774      2.00000
     12       4.6826      2.00000
     13       9.4316      0.00000
     14       9.5423      0.00000
     15      10.0103      0.00000
     16      10.0425      0.00000
     17      13.4528      0.00000
     18      14.3758      0.00000

 k-point    49 :       0.5000    0.3000    0.3000
  band No.  band energies     occupation 
      1     -28.7030      2.00000
      2     -28.7030      2.00000
      3     -28.3006      2.00000
      4     -28.3006      2.00000
      5     -27.9539      2.00000
      6     -27.9539      2.00000
      7       2.5999      2.00000
      8       2.5999      2.00000
      9       3.9568      2.00000
     10       3.9568      2.00000
     11       4.6564      2.00000
     12       4.6564      2.00000
     13       9.4234      0.00000
     14       9.4234      0.00000
     15      10.1189      0.00000
     16      10.1189      0.00000
     17      14.5032      0.00000
     18      14.5032      0.00000

 k-point    50 :       0.4000    0.4000    0.3000
  band No.  band energies     occupation 
      1     -28.6967      2.00000
      2     -28.6600      2.00000
      3     -28.4199      2.00000
      4     -28.1940      2.00000
      5     -28.0293      2.00000
      6     -27.9682      2.00000
      7       2.7834      2.00000
      8       2.8048      2.00000
      9       3.8044      2.00000
     10       4.0379      2.00000
     11       4.4318      2.00000
     12       4.8943      2.00000
     13       9.6582      0.00000
     14       9.8177      0.00000
     15      10.1252      0.00000
     16      10.1636      0.00000
     17      13.9091      0.00000
     18      14.5125      0.00000

 k-point    51 :       0.5000    0.4000    0.3000
  band No.  band energies     occupation 
      1     -28.6869      2.00000
      2     -28.6869      2.00000
      3     -28.3049      2.00000
      4     -28.3049      2.00000
      5     -28.0081      2.00000
      6     -28.0081      2.00000
      7       2.7877      2.00000
      8       2.7877      2.00000
      9       3.8499      2.00000
     10       3.8499      2.00000
     11       4.9335      2.00000
     12       4.9335      2.00000
     13       9.7799      0.00000
     14       9.7799      0.00000
     15      10.2159      0.00000
     16      10.2159      0.00000
     17      14.2965      0.00000
     18      14.2965      0.00000

 k-point    52 :       0.5000    0.5000    0.3000
  band No.  band energies     occupation 
      1     -28.6854      2.00000
      2     -28.6854      2.00000
      3     -28.2938      2.00000
      4     -28.2938      2.00000
      5     -28.0369      2.00000
      6     -28.0369      2.00000
      7       2.8181      2.00000
      8       2.8181      2.00000
      9       3.7327      2.00000
     10       3.7327      2.00000
     11       5.2386      2.03368
     12       5.2386      2.03368
     13       9.8755      0.00000
     14       9.8755      0.00000
     15      10.2744      0.00000
     16      10.2744      0.00000
     17      13.8932      0.00000
     18      13.8932      0.00000

 k-point    53 :       0.4000    0.4000    0.4000
  band No.  band energies     occupation 
      1     -28.6388      2.00000
      2     -28.5105      2.00000
      3     -28.5105      2.00000
      4     -28.1789      2.00000
      5     -28.1789      2.00000
      6     -28.0426      2.00000
      7       3.1238      2.00000
      8       3.8007      2.00000
      9       3.8535      2.00000
     10       3.8535      2.00000
     11       4.4249      2.00000
     12       4.4249      2.00000
     13      10.1096      0.00000
     14      10.1096      0.00000
     15      10.1446      0.00000
     16      10.1446      0.00000
     17      13.1334      0.00000
     18      14.0666      0.00000

 k-point    54 :       0.5000    0.4000    0.4000
  band No.  band energies     occupation 
      1     -28.5813      2.00000
      2     -28.5813      2.00000
      3     -28.3447      2.00000
      4     -28.3447      2.00000
      5     -28.1215      2.00000
      6     -28.1215      2.00000
      7       3.4069      2.00000
      8       3.4069      2.00000
      9       4.0612      2.00000
     10       4.0612      2.00000
     11       4.4781      2.00000
     12       4.4781      2.00000
     13      10.1272      0.00000
     14      10.1272      0.00000
     15      10.2549      0.00000
     16      10.2549      0.00000
     17      13.1906      0.00000
     18      13.1906      0.00000

 k-point    55 :       0.5000    0.5000    0.4000
  band No.  band energies     occupation 
      1     -28.5319      2.00000
      2     -28.5319      2.00000
      3     -28.3429      2.00000
      4     -28.3429      2.00000
      5     -28.1909      2.00000
      6     -28.1909      2.00000
      7       3.7201      2.00000
      8       3.7201      2.00000
      9       3.8424      2.00000
     10       3.8424      2.00000
     11       4.6026      2.00000
     12       4.6026      2.00000
     13      10.2073      0.00000
     14      10.2073      0.00000
     15      10.3164      0.00000
     16      10.3164      0.00000
     17      12.7462      0.00000
     18      12.7462      0.00000

 k-point    56 :       0.5000    0.5000    0.5000
  band No.  band energies     occupation 
      1     -28.3615      2.00000
      2     -28.3615      2.00000
      3     -28.3615      2.00000
      4     -28.3615      2.00000
      5     -28.3615      2.00000
      6     -28.3615      2.00000
      7       4.1283      2.00000
      8       4.1283      2.00000
      9       4.1283      2.00000
     10       4.1283      2.00000
     11       4.1283      2.00000
     12       4.1283      2.00000
     13      10.3325      0.00000
     14      10.3325      0.00000
     15      10.3325      0.00000
     16      10.3325      0.00000
     17      12.2803      0.00000
     18      12.2803      0.00000


--------------------------------------------------------------------------------------------------------


 soft charge-density along one line, spin component           1
         0         1         2         3         4         5         6         7         8         9
 total charge-density along one line
 
 pseudopotential strength for first ion, spin component:           1
-31.640   0.000  -0.000   7.675  -0.000   0.000  -0.000  -0.000
  0.000 -31.640  -0.000  -0.000   7.675   0.000   0.000  -0.000
 -0.000  -0.000 -31.640   0.000   0.000   7.675  -0.000   0.000
  7.675  -0.000   0.000   6.256   0.000  -0.000   0.000   0.000
 -0.000   7.675   0.000   0.000   6.256  -0.000  -0.000   0.000
  0.000   0.000   7.675  -0.000  -0.000   6.256   0.000  -0.000
 -0.000   0.000  -0.000   0.000  -0.000   0.000  -6.680  -0.000
 -0.000  -0.000   0.000   0.000   0.000  -0.000  -0.000  -6.680
  0.000  -0.000   0.000  -0.000   0.000  -0.000   0.000   0.000
  0.000   0.000  -0.000  -0.000   0.000   0.000   0.000  -0.000
  0.000  -0.000  -0.000  -0.000   0.000   0.000  -0.000  -0.000
 -0.000   0.000  -0.000   0.000  -0.000   0.000  -8.136  -0.000
 -0.000  -0.000   0.000   0.000   0.000  -0.000  -0.000  -8.136
  0.000  -0.000   0.000  -0.000   0.000  -0.000   0.000   0.000
  0.000  -0.000  -0.000  -0.000  -0.000   0.000   0.000  -0.000
  0.000  -0.000   0.000  -0.000   0.000   0.000  -0.000  -0.000
  0.000   0.000   0.000  -0.000  -0.000   0.000   0.000  -0.000
  0.000   0.000   0.000   0.000   0.000   0.000   0.000  -0.000
 total augmentation occupancy for first ion, spin component:           1
  1.995   0.000   0.000  -0.017  -0.000  -0.000  -0.000   0.000   0.000   0.000  -0.000  -0.000   0.000  -0.000  -0.000  -0.000
  0.000   1.995   0.000  -0.000  -0.017  -0.000   0.000  -0.000  -0.000   0.000  -0.000   0.000   0.000   0.000   0.000  -0.000
  0.000   0.000   1.995  -0.000  -0.000  -0.017   0.000   0.000  -0.000  -0.000   0.000  -0.000   0.000   0.000   0.000   0.000
 -0.017  -0.000  -0.000   0.152   0.000   0.000   0.000   0.000  -0.000   0.000   0.000  -0.000   0.000  -0.000   0.000   0.000
 -0.000  -0.017  -0.000   0.000   0.152   0.000  -0.000   0.000   0.000   0.000   0.000   0.000  -0.000   0.000  -0.000   0.000
 -0.000  -0.000  -0.017   0.000   0.000   0.152   0.000   0.000   0.000  -0.000  -0.000  -0.000   0.000   0.000  -0.000   0.000
  0.000   0.000  -0.000  -0.000  -0.000  -0.000   5.255   0.000  -0.000   0.000   0.000  -2.707  -0.000   0.000  -0.000  -0.000
  0.000   0.000   0.000   0.000   0.000   0.000   0.000   5.255   0.000   0.000  -0.000  -0.000  -2.707  -0.000  -0.000   0.000
  0.000   0.000  -0.000  -0.000  -0.000  -0.000  -0.000   0.000   4.902   0.000  -0.000   0.000  -0.000  -2.664  -0.000   0.000
  0.000   0.000  -0.000   0.000   0.000   0.000   0.000   0.000   0.000   5.255   0.000  -0.000  -0.000  -0.000  -2.707  -0.000
  0.000   0.000   0.000   0.000  -0.000  -0.000   0.000  -0.000  -0.000   0.000   4.902  -0.000   0.000   0.000  -0.000  -2.664
 -0.000   0.000  -0.000  -0.000   0.000  -0.000  -2.707  -0.000   0.000  -0.000  -0.000   1.425   0.000  -0.000   0.000  -0.000
 -0.000   0.000   0.000   0.000   0.000   0.000  -0.000  -2.707  -0.000  -0.000   0.000   0.000   1.425   0.000   0.000  -0.000
  0.000  -0.000   0.000  -0.000   0.000   0.000   0.000  -0.000  -2.664  -0.000   0.000  -0.000   0.000   1.463   0.000  -0.000
 -0.000   0.000   0.000   0.000   0.000  -0.000  -0.000  -0.000  -0.000  -2.707  -0.000   0.000   0.000   0.000   1.425   0.000
  0.000   0.000   0.000   0.000  -0.000   0.000  -0.000   0.000   0.000  -0.000  -2.664  -0.000  -0.000   0.000   0.000   1.463
 -0.000  -0.000  -0.000   0.000  -0.000  -0.000   0.000   0.000  -0.000   0.000   0.000  -0.000   0.000   0.000  -0.000  -0.000
 -0.000  -0.000   0.000   0.000   0.000  -0.000  -0.000   0.000   0.000   0.000  -0.000  -0.000   0.000   0.000  -0.000   0.000


------------------------ aborting loop because EDIFF is reached ----------------------------------------


    CHARGE:  cpu time      0.0097: real time      0.0098
    FORLOC:  cpu time      0.0005: real time      0.0010
    FORNL :  cpu time      0.0488: real time      0.0498
    STRESS:  cpu time      0.1424: real time      0.1448
    FORCOR:  cpu time      0.0040: real time      0.0051
    FORHAR:  cpu time      0.0017: real time      0.0026
    MIXING:  cpu time      0.0005: real time      0.0005
    OFIELD:  cpu time      0.0005: real time      0.0010

  FORCE on cell =-STRESS in cart. coord.  units (eV):
  Direction    XX          YY          ZZ          XY          YZ          ZX
  --------------------------------------------------------------------------------------
  Alpha Z   250.27957   250.27957   250.27957
  Ewald    -636.37577  -636.37577  -636.37577    -0.00000     0.00000     0.00000
  Hartree    75.11700    75.11700    75.11700    -0.00000    -0.00000    -0.00000
  E(xc)     -93.75462   -93.75462   -93.75462    -0.00000     0.00000    -0.00000
  Local     199.95187   199.95187   199.95187    -0.00000    -0.00000    -0.00000
  n-local  -101.08722   -98.72950   -94.77110     2.51462    -0.76254     0.50157
  augment    43.32913    43.32913    43.32913     0.00000     0.00000    -0.00000
  Kinetic   250.12705   257.89972   270.91656     2.97261    -3.10984     0.34551
  Fock        0.00000     0.00000     0.00000     0.00000     0.00000     0.00000
  -------------------------------------------------------------------------------------
  Total      -0.00098    -0.00098    -0.00098     0.00000    -0.00000    -0.00000
  in kB      -0.04295    -0.04295    -0.04295     0.00000    -0.00000    -0.00000
  external pressure =       -0.04 kB  Pullay stress =        0.00 kB


 VOLUME and BASIS-vectors are now :
 -----------------------------------------------------------------------------
  energy-cutoff  :      520.00
  volume of cell :       36.64
      direct lattice vectors                 reciprocal lattice vectors
     3.321363715  0.000000000  0.000000000     0.301081148 -0.000000000  0.000000000
     0.000000000  3.321363715  0.000000000     0.000000000  0.301081148  0.000000000
     0.000000000  0.000000000  3.321363715    -0.000000000 -0.000000000  0.301081148

  length of vectors
     3.321363715  3.321363715  3.321363715     0.301081148  0.301081148  0.301081148


 FORCES acting on ions
    electron-ion (+dipol)            ewald-force                    non-local-force                 convergence-correction
 -----------------------------------------------------------------------------------------------
   -.207E-13 -.630E-14 -.217E-13   0.655E-14 0.991E-15 -.384E-14   0.349E-23 0.293E-24 0.742E-23   -.242E-13 0.400E-14 -.107E-13
   0.881E-13 0.143E-11 0.148E-11   -.485E-14 -.194E-14 0.521E-14   0.268E-23 0.131E-23 0.566E-23   -.177E-13 -.797E-14 -.437E-13
 -----------------------------------------------------------------------------------------------
   0.674E-13 0.142E-11 0.146E-11   0.170E-14 -.944E-15 0.137E-14   0.617E-23 0.161E-23 0.131E-22   -.419E-13 -.398E-14 -.544E-13
 
 
 POSITION                                       TOTAL-FORCE (eV/Angst)
 -----------------------------------------------------------------------------------
      0.00000      0.00000      0.00000         0.000000     -0.000000      0.000000
      1.66068      1.66068      1.66068        -0.000000      0.000000     -0.000000
 -----------------------------------------------------------------------------------
    total drift:                                0.000000      0.000000      0.000000


--------------------------------------------------------------------------------------------------------



  FREE ENERGIE OF THE ION-ELECTRON SYSTEM (eV)
  ---------------------------------------------------
  free  energy   TOTEN  =       -23.62900909 eV

  energy  without entropy=      -23.62932665  energy(sigma->0) =      -23.62911495
 


--------------------------------------------------------------------------------------------------------


    POTLOK:  cpu time      0.1155: real time      0.1166


--------------------------------------------------------------------------------------------------------


     LOOP+:  cpu time      4.8431: real time      5.1221
    4ORBIT:  cpu time      0.0000: real time      0.0000

 total amount of memory used by VASP MPI-rank0    31166. kBytes
=======================================================================

   base      :      30000. kBytes
   nonlr-proj:        541. kBytes
   fftplans  :        168. kBytes
   grid      :        217. kBytes
   one-center:         15. kBytes
   wavefun   :        225. kBytes
 
  
  
 General timing and accounting informations for this job:
 ========================================================
  
                  Total CPU time used (sec):        6.581
                            User time (sec):        5.396
                          System time (sec):        1.185
                         Elapsed time (sec):        8.281
  
                   Maximum memory used (kb):      231520.
                   Average memory used (kb):          N/A
  
                          Minor page faults:        44727
                          Major page faults:            8
                 Voluntary context switches:         5848
