<?xml version="1.0" encoding="ISO-8859-1"?>
<modeling>
 <generator>
  <i name="program" type="string">vasp </i>
  <i name="version" type="string">6.3.0  </i>
  <i name="subversion" type="string">20Jan22 (build Mar 25 2022 12:20:17) complex                          parallel </i>
  <i name="platform" type="string">LinuxIFC </i>
  <i name="date" type="string">2023 08 20 </i>
  <i name="time" type="string">15:14:32 </i>
 </generator>
 <incar>
  <i type="string" name="PREC">Accurate</i>
  <i type="string" name="ALGO">normal</i>
  <i type="int" name="NELM">   400</i>
  <i name="EDIFF">      0.00001000</i>
  <i type="int" name="NSW">     0</i>
  <i type="int" name="ISIF">     2</i>
  <i name="ENCUT">    520.00000000</i>
  <i type="string" name="LREAL">Auto</i>
  <i type="int" name="ISMEAR">     1</i>
  <i name="SIGMA">      0.10000000</i>
  <i name="KSPACING">      0.20000000</i>
  <i type="logical" name="LWAVE"> F  </i>
  <i type="logical" name="LCHARG"> F  </i>
  <i type="logical" name="LASPH"> T  </i>
 </incar>
 <primitive_cell>
  <structure name="primitive_cell" >
   <crystal>
    <varray name="basis" >
     <v>       1.66068186       1.66068186      -1.66068186 </v>
     <v>      -1.66068186       1.66068186       1.66068186 </v>
     <v>       1.66068186      -1.66068186       1.66068186 </v>
    </varray>
    <i name="volume">     18.31974039 </i>
    <varray name="rec_basis" >
     <v>       0.30108115       0.30108115      -0.00000000 </v>
     <v>      -0.00000000       0.30108115       0.30108115 </v>
     <v>       0.30108115      -0.00000000       0.30108115 </v>
    </varray>
   </crystal>
   <varray name="positions" >
    <v>       0.00000000       0.00000000       0.00000000 </v>
   </varray>
  </structure>
  <varray name="primitive_index" >
   <v type="int" >        1 </v>
  </varray>
 </primitive_cell>
 <kpoints>
  <generation param="Gamma">
   <v type="int" name="divisions">      10       10       10 </v>
   <v name="usershift">      0.00000000       0.00000000       0.00000000 </v>
   <v name="genvec1">      0.10000000      -0.00000000       0.00000000 </v>
   <v name="genvec2">      0.00000000       0.10000000       0.00000000 </v>
   <v name="genvec3">     -0.00000000      -0.00000000       0.10000000 </v>
   <v name="shift">      0.00000000       0.00000000       0.00000000 </v>
  </generation>
  <varray name="kpointlist" >
   <v>       0.00000000       0.00000000       0.00000000 </v>
   <v>       0.10000000      -0.00000000       0.00000000 </v>
   <v>       0.20000000      -0.00000000       0.00000000 </v>
   <v>       0.30000000      -0.00000000       0.00000000 </v>
   <v>       0.40000000      -0.00000000       0.00000000 </v>
   <v>       0.50000000      -0.00000000       0.00000000 </v>
   <v>       0.10000000       0.10000000       0.00000000 </v>
   <v>       0.20000000       0.10000000       0.00000000 </v>
   <v>       0.30000000       0.10000000       0.00000000 </v>
   <v>       0.40000000       0.10000000       0.00000000 </v>
   <v>       0.50000000       0.10000000       0.00000000 </v>
   <v>       0.20000000       0.20000000       0.00000000 </v>
   <v>       0.30000000       0.20000000       0.00000000 </v>
   <v>       0.40000000       0.20000000       0.00000000 </v>
   <v>       0.50000000       0.20000000       0.00000000 </v>
   <v>       0.30000000       0.30000000       0.00000000 </v>
   <v>       0.40000000       0.30000000       0.00000000 </v>
   <v>       0.50000000       0.30000000       0.00000000 </v>
   <v>       0.40000000       0.40000000       0.00000000 </v>
   <v>       0.50000000       0.40000000       0.00000000 </v>
   <v>       0.50000000       0.50000000       0.00000000 </v>
   <v>       0.10000000       0.10000000       0.10000000 </v>
   <v>       0.20000000       0.10000000       0.10000000 </v>
   <v>       0.30000000       0.10000000       0.10000000 </v>
   <v>       0.40000000       0.10000000       0.10000000 </v>
   <v>       0.50000000       0.10000000       0.10000000 </v>
   <v>       0.20000000       0.20000000       0.10000000 </v>
   <v>       0.30000000       0.20000000       0.10000000 </v>
   <v>       0.40000000       0.20000000       0.10000000 </v>
   <v>       0.50000000       0.20000000       0.10000000 </v>
   <v>       0.30000000       0.30000000       0.10000000 </v>
   <v>       0.40000000       0.30000000       0.10000000 </v>
   <v>       0.50000000       0.30000000       0.10000000 </v>
   <v>       0.40000000       0.40000000       0.10000000 </v>
   <v>       0.50000000       0.40000000       0.10000000 </v>
   <v>       0.50000000       0.50000000       0.10000000 </v>
   <v>       0.20000000       0.20000000       0.20000000 </v>
   <v>       0.30000000       0.20000000       0.20000000 </v>
   <v>       0.40000000       0.20000000       0.20000000 </v>
   <v>       0.50000000       0.20000000       0.20000000 </v>
   <v>       0.30000000       0.30000000       0.20000000 </v>
   <v>       0.40000000       0.30000000       0.20000000 </v>
   <v>       0.50000000       0.30000000       0.20000000 </v>
   <v>       0.40000000       0.40000000       0.20000000 </v>
   <v>       0.50000000       0.40000000       0.20000000 </v>
   <v>       0.50000000       0.50000000       0.20000000 </v>
   <v>       0.30000000       0.30000000       0.30000000 </v>
   <v>       0.40000000       0.30000000       0.30000000 </v>
   <v>       0.50000000       0.30000000       0.30000000 </v>
   <v>       0.40000000       0.40000000       0.30000000 </v>
   <v>       0.50000000       0.40000000       0.30000000 </v>
   <v>       0.50000000       0.50000000       0.30000000 </v>
   <v>       0.40000000       0.40000000       0.40000000 </v>
   <v>       0.50000000       0.40000000       0.40000000 </v>
   <v>       0.50000000       0.50000000       0.40000000 </v>
   <v>       0.50000000       0.50000000       0.50000000 </v>
  </varray>
  <varray name="weights" >
   <v>       0.00100000 </v>
   <v>       0.00600000 </v>
   <v>       0.00600000 </v>
   <v>       0.00600000 </v>
   <v>       0.00600000 </v>
   <v>       0.00300000 </v>
   <v>       0.01200000 </v>
   <v>       0.02400000 </v>
   <v>       0.02400000 </v>
   <v>       0.02400000 </v>
   <v>       0.01200000 </v>
   <v>       0.01200000 </v>
   <v>       0.02400000 </v>
   <v>       0.02400000 </v>
   <v>       0.01200000 </v>
   <v>       0.01200000 </v>
   <v>       0.02400000 </v>
   <v>       0.01200000 </v>
   <v>       0.01200000 </v>
   <v>       0.01200000 </v>
   <v>       0.00300000 </v>
   <v>       0.00800000 </v>
   <v>       0.02400000 </v>
   <v>       0.02400000 </v>
   <v>       0.02400000 </v>
   <v>       0.01200000 </v>
   <v>       0.02400000 </v>
   <v>       0.04800000 </v>
   <v>       0.04800000 </v>
   <v>       0.02400000 </v>
   <v>       0.02400000 </v>
   <v>       0.04800000 </v>
   <v>       0.02400000 </v>
   <v>       0.02400000 </v>
   <v>       0.02400000 </v>
   <v>       0.00600000 </v>
   <v>       0.00800000 </v>
   <v>       0.02400000 </v>
   <v>       0.02400000 </v>
   <v>       0.01200000 </v>
   <v>       0.02400000 </v>
   <v>       0.04800000 </v>
   <v>       0.02400000 </v>
   <v>       0.02400000 </v>
   <v>       0.02400000 </v>
   <v>       0.00600000 </v>
   <v>       0.00800000 </v>
   <v>       0.02400000 </v>
   <v>       0.01200000 </v>
   <v>       0.02400000 </v>
   <v>       0.02400000 </v>
   <v>       0.00600000 </v>
   <v>       0.00800000 </v>
   <v>       0.01200000 </v>
   <v>       0.00600000 </v>
   <v>       0.00100000 </v>
  </varray>
 </kpoints>
 <parameters>
  <separator name="general" >
   <i type="string" name="SYSTEM">unknown system</i>
   <i type="logical" name="LCOMPAT"> F  </i>
  </separator>
  <separator name="electronic" >
   <i type="string" name="PREC">accura</i>
   <i name="ENMAX">    520.00000000</i>
   <i name="ENAUG">    377.42100000</i>
   <i name="EDIFF">      0.00001000</i>
   <i type="int" name="IALGO">    38</i>
   <i type="int" name="IWAVPR">    10</i>
   <i type="int" name="NBANDS">    18</i>
   <i type="int" name="NBANDSLOW">    -1</i>
   <i type="int" name="NBANDSHIGH">    -1</i>
   <i name="NELECT">     22.00000000</i>
   <i type="int" name="TURBO">     0</i>
   <i type="int" name="IRESTART">     0</i>
   <i type="int" name="NREBOOT">     0</i>
   <i type="int" name="NMIN">     0</i>
   <i name="EREF">      0.00000000</i>
   <separator name="electronic smearing" >
    <i type="int" name="ISMEAR">     1</i>
    <i name="SIGMA">      0.10000000</i>
    <i name="KSPACING">      0.20000000</i>
    <i type="logical" name="KGAMMA"> T  </i>
    <i type="logical" name="KBLOWUP"> T  </i>
   </separator>
   <separator name="electronic projectors" >
    <i type="logical" name="LREAL"> T  </i>
    <v name="ROPT">     -0.00025000</v>
    <i type="int" name="LMAXPAW">  -100</i>
    <i type="int" name="LMAXMIX">     2</i>
    <i type="logical" name="NLSPLINE"> F  </i>
   </separator>
   <separator name="electronic startup" >
    <i type="int" name="ISTART">     0</i>
    <i type="int" name="ICHARG">     2</i>
    <i type="int" name="INIWAV">     1</i>
   </separator>
   <separator name="electronic spin" >
    <i type="int" name="ISPIN">     1</i>
    <i type="logical" name="LNONCOLLINEAR"> F  </i>
    <v name="MAGMOM">      1.00000000      1.00000000</v>
    <i name="NUPDOWN">     -1.00000000</i>
    <i type="logical" name="LSORBIT"> F  </i>
    <v name="SAXIS">      0.00000000      0.00000000      1.00000000</v>
    <i type="logical" name="LSPIRAL"> F  </i>
    <v name="QSPIRAL">      0.00000000      0.00000000      0.00000000</v>
    <i type="logical" name="LZEROZ"> F  </i>
   </separator>
   <separator name="electronic exchange-correlation" >
    <i type="logical" name="LASPH"> T  </i>
    <i type="logical" name="LMETAGGA"> F  </i>
   </separator>
   <separator name="electronic convergence" >
    <i type="int" name="NELM">   400</i>
    <i type="int" name="NELMDL">    -5</i>
    <i type="int" name="NELMIN">     2</i>
    <i name="ENINI">    520.00000000</i>
    <separator name="electronic convergence detail" >
     <i type="logical" name="LDIAG"> T  </i>
     <i type="logical" name="LSUBROT"> F  </i>
     <i name="WEIMIN">      0.00000000</i>
     <i name="EBREAK">      0.00000014</i>
     <i name="DEPER">      0.30000000</i>
     <i type="int" name="NRMM">     4</i>
     <i name="TIME">      0.40000000</i>
    </separator>
   </separator>
   <separator name="electronic mixer" >
    <i name="AMIX">      0.40000000</i>
    <i name="BMIX">      1.00000000</i>
    <i name="AMIN">      0.10000000</i>
    <i name="AMIX_MAG">      1.60000000</i>
    <i name="BMIX_MAG">      1.00000000</i>
    <separator name="electronic mixer details" >
     <i type="int" name="IMIX">     4</i>
     <i type="logical" name="MIXFIRST"> F  </i>
     <i type="int" name="MAXMIX">   -45</i>
     <i name="WC">    100.00000000</i>
     <i type="int" name="INIMIX">     1</i>
     <i type="int" name="MIXPRE">     1</i>
     <i type="int" name="MREMOVE">     5</i>
    </separator>
   </separator>
   <separator name="electronic dipolcorrection" >
    <i type="logical" name="LDIPOL"> F  </i>
    <i type="logical" name="LMONO"> F  </i>
    <i type="int" name="IDIPOL">     0</i>
    <i name="EPSILON">      1.00000000</i>
    <v name="DIPOL">   -100.00000000   -100.00000000   -100.00000000</v>
    <i name="EFIELD">      0.00000000</i>
   </separator>
  </separator>
  <separator name="grids" >
   <i type="int" name="NGX">    28</i>
   <i type="int" name="NGY">    28</i>
   <i type="int" name="NGZ">    28</i>
   <i type="int" name="NGXF">    56</i>
   <i type="int" name="NGYF">    56</i>
   <i type="int" name="NGZF">    56</i>
   <i type="logical" name="ADDGRID"> F  </i>
  </separator>
  <separator name="ionic" >
   <i type="int" name="NSW">     0</i>
   <i type="int" name="IBRION">    -1</i>
   <i type="int" name="MDALGO">     0</i>
   <i type="int" name="ISIF">     2</i>
   <i name="PSTRESS">      0.00000000</i>
   <i name="EDIFFG">      0.00010000</i>
   <i type="int" name="NFREE">     0</i>
   <i name="POTIM">      0.50000000</i>
   <i name="SMASS">     -3.00000000</i>
   <i name="SCALEE">      1.00000000</i>
  </separator>
  <separator name="ionic md" >
   <i name="TEBEG">      0.00010000</i>
   <i name="TEEND">      0.00010000</i>
   <i type="int" name="NBLOCK">     1</i>
   <i type="int" name="KBLOCK">     1</i>
   <i type="int" name="NPACO">   256</i>
   <i name="APACO">     10.00000000</i>
  </separator>
  <separator name="symmetry" >
   <i type="int" name="ISYM">     2</i>
   <i name="SYMPREC">      0.00001000</i>
  </separator>
  <separator name="dos" >
   <i type="int" name="LORBIT">     0</i>
   <v name="RWIGS">     -1.00000000</v>
   <i type="int" name="NEDOS">   301</i>
   <i name="EMIN">     10.00000000</i>
   <i name="EMAX">    -10.00000000</i>
   <i name="EFERMI">      0.00000000</i>
  </separator>
  <separator name="writing" >
   <i type="int" name="NWRITE">     2</i>
   <i type="logical" name="LWAVE"> F  </i>
   <i type="logical" name="LDOWNSAMPLE"> F  </i>
   <i type="logical" name="LCHARG"> F  </i>
   <i type="logical" name="LPARD"> F  </i>
   <i type="logical" name="LVTOT"> F  </i>
   <i type="logical" name="LVHAR"> F  </i>
   <i type="logical" name="LELF"> F  </i>
   <i type="logical" name="LOPTICS"> F  </i>
   <v name="STM">      0.00000000      0.00000000      0.00000000      0.00000000      0.00000000      0.00000000      0.00000000</v>
  </separator>
  <separator name="performance" >
   <i type="int" name="NPAR">     6</i>
   <i type="int" name="NSIM">     4</i>
   <i type="int" name="NBLK">    -1</i>
   <i type="logical" name="LPLANE"> T  </i>
   <i type="logical" name="LSCALAPACK"> T  </i>
   <i type="logical" name="LSCAAWARE"> T  </i>
   <i type="logical" name="LSCALU"> F  </i>
   <i type="logical" name="LASYNC"> F  </i>
   <i type="logical" name="LORBITALREAL"> F  </i>
  </separator>
  <separator name="miscellaneous" >
   <i type="int" name="IDIOT">     3</i>
   <i type="int" name="PHON_NSTRUCT">    -1</i>
   <i type="logical" name="LMUSIC"> F  </i>
   <v name="POMASS">    180.94800000</v>
   <v name="DARWINR">      0.00000000</v>
   <v name="DARWINV">      1.00000000</v>
   <i type="logical" name="LCORR"> T  </i>
  </separator>
  <i type="logical" name="GGA_COMPAT"> T  </i>
  <i type="logical" name="LBERRY"> F  </i>
  <i type="int" name="ICORELEVEL">     0</i>
  <i type="logical" name="LDAU"> F  </i>
  <i type="int" name="I_CONSTRAINED_M">     0</i>
  <separator name="electronic exchange-correlation" >
   <i type="string" name="GGA">--</i>
   <i type="int" name="VOSKOWN">     0</i>
   <i type="logical" name="LHFCALC"> F  </i>
   <i type="string" name="PRECFOCK"></i>
   <i type="logical" name="LSYMGRAD"> F  </i>
   <i type="logical" name="LHFONE"> F  </i>
   <i type="logical" name="LRHFCALC"> F  </i>
   <i type="logical" name="LTHOMAS"> F  </i>
   <i type="logical" name="LMODELHF"> F  </i>
   <i type="logical" name="LFOCKACE"> F  </i>
   <i name="ENCUT4O">     -1.00000000</i>
   <i type="int" name="EXXOEP">     0</i>
   <i type="int" name="FOURORBIT">     0</i>
   <i name="AEXX">      0.00000000</i>
   <i name="HFALPHA">      0.00000000</i>
   <i name="MCALPHA">      0.00000000</i>
   <i name="ALDAX">      1.00000000</i>
   <i name="AGGAX">      1.00000000</i>
   <i name="ALDAC">      1.00000000</i>
   <i name="AGGAC">      1.00000000</i>
   <i type="int" name="NKREDX">     1</i>
   <i type="int" name="NKREDY">     1</i>
   <i type="int" name="NKREDZ">     1</i>
   <i type="logical" name="SHIFTRED"> F  </i>
   <i type="logical" name="ODDONLY"> F  </i>
   <i type="logical" name="EVENONLY"> F  </i>
   <i type="int" name="LMAXFOCK">     0</i>
   <i type="int" name="NMAXFOCKAE">     0</i>
   <i type="logical" name="LFOCKAEDFT"> F  </i>
   <i name="HFSCREEN">      0.00000000</i>
   <i name="HFSCREENC">      0.00000000</i>
   <i type="int" name="NBANDSGWLOW">     0</i>
  </separator>
  <separator name="vdW DFT" >
   <i type="logical" name="LUSE_VDW"> F  </i>
   <i name="Zab_VDW">     -0.84910000</i>
   <i name="PARAM1">      0.12340000</i>
   <i name="PARAM2">      1.00000000</i>
   <i name="PARAM3">      0.00000000</i>
  </separator>
  <separator name="model GW" >
   <i type="int" name="MODEL_GW">     0</i>
   <i name="MODEL_EPS0">     10.99184423</i>
   <i name="MODEL_ALPHA">      1.00000000</i>
  </separator>
  <separator name="linear response parameters" >
   <i type="logical" name="LEPSILON"> F  </i>
   <i type="logical" name="LRPA"> F  </i>
   <i type="logical" name="LNABLA"> F  </i>
   <i type="logical" name="LVEL"> F  </i>
   <i name="CSHIFT">      0.10000000</i>
   <i name="OMEGAMAX">     -1.00000000</i>
   <i name="DEG_THRESHOLD">      0.00200000</i>
   <i name="RTIME">     -0.10000000</i>
   <i name="WPLASMAI">      0.00000000</i>
   <v name="DFIELD">      0.00000000      0.00000000      0.00000000</v>
   <v name="WPLASMA">      0.00000000      0.00000000      0.00000000      0.00000000      0.00000000      0.00000000      0.00000000      0.00000000      0.00000000</v>
  </separator>
  <separator name="orbital magnetization" >
   <i type="logical" name="NUCIND"> F  </i>
   <v name="MAGPOS">      0.00000000      0.00000000      0.00000000</v>
   <i type="logical" name="LNICSALL"> T  </i>
   <i type="logical" name="ORBITALMAG"> F  </i>
   <i type="logical" name="LMAGBLOCH"> F  </i>
   <i type="logical" name="LCHIMAG"> F  </i>
   <i type="logical" name="LGAUGE"> T  </i>
   <i type="int" name="MAGATOM">     0</i>
   <v name="MAGDIPOL">      0.00000000      0.00000000      0.00000000</v>
   <v name="AVECCONST">      0.00000000      0.00000000      0.00000000</v>
  </separator>
  <separator name="response functions" >
   <i type="logical" name="LFINITE_TEMPERATURE"> F  </i>
   <i type="logical" name="LADDER"> F  </i>
   <i type="logical" name="LRPAFORCE"> F  </i>
   <i type="logical" name="LFXC"> F  </i>
   <i type="logical" name="LHARTREE"> T  </i>
   <i type="int" name="IBSE">     0</i>
   <v type="int" name="KPOINT">    -1     0     0     0</v>
   <i type="logical" name="LTCTC"> F  </i>
   <i type="logical" name="LTCTE"> F  </i>
   <i type="logical" name="LTETE"> F  </i>
   <i type="logical" name="LTRIPLET"> F  </i>
   <i type="logical" name="LFXCEPS"> F  </i>
   <i type="logical" name="LFXHEG"> F  </i>
   <i type="int" name="NATURALO">     2</i>
   <i type="logical" name="LHOLEGF"> F  </i>
   <i type="logical" name="L2ORDER"> F  </i>
   <i type="logical" name="LDMP1"> F  </i>
   <i type="logical" name="LMP2LT"> F  </i>
   <i type="logical" name="LSMP2LT"> F  </i>
   <i type="logical" name="LGWLF"> F  </i>
   <i name="ENCUTGW">     -2.00000000</i>
   <i name="ENCUTGWSOFT">     -2.00000000</i>
   <i name="ENCUTLF">     -1.00000000</i>
   <i type="logical" name="LESF_SPLINES"> F  </i>
   <i type="int" name="LMAXMP2">    -1</i>
   <i name="SCISSOR">      0.00000000</i>
   <i type="int" name="NOMEGA">     0</i>
   <i type="int" name="NOMEGAR">     0</i>
   <i type="int" name="NBANDSGW">    -1</i>
   <i type="int" name="NBANDSO">    -1</i>
   <i type="int" name="NBANDSV">    -1</i>
   <i type="int" name="NELMGW">     1</i>
   <i type="int" name="NELMHF">     1</i>
   <i type="int" name="DIM">     3</i>
   <i type="int" name="IESPILON">     4</i>
   <i type="int" name="ANTIRES">     0</i>
   <i name="OMEGAMAX">    -30.00000000</i>
   <i name="OMEGAMIN">    -30.00000000</i>
   <i name="OMEGATL">   -200.00000000</i>
   <i type="int" name="OMEGAGRID">     0</i>
   <i name="CSHIFT">     -0.10000000</i>
   <i type="logical" name="LSELFENERGY"> F  </i>
   <i type="logical" name="LSPECTRAL"> F  </i>
   <i type="logical" name="LSPECTRALGW"> F  </i>
   <i type="logical" name="LSINGLES"> F  </i>
   <i type="logical" name="LFERMIGW"> F  </i>
   <i type="logical" name="ODDONLYGW"> F  </i>
   <i type="logical" name="EVENONLYGW"> F  </i>
   <i type="int" name="NKREDLFX">     1</i>
   <i type="int" name="NKREDLFY">     1</i>
   <i type="int" name="NKREDLFZ">     1</i>
   <i type="int" name="MAXMEM">  2800</i>
   <i type="int" name="TELESCOPE">     0</i>
   <i type="int" name="NTAUPAR">    -1</i>
   <i type="int" name="NOMEGAPAR">    -1</i>
   <i name="DAMP_NEWTON">      0.80000001</i>
   <i name="LAMBDA">      1.00000000</i>
  </separator>
  <separator name="External order field" >
   <i name="OFIELD_KAPPA">      0.00000000</i>
   <v name="OFIELD_K">      0.00000000      0.00000000      0.00000000</v>
   <i name="OFIELD_Q6_NEAR">      0.00000000</i>
   <i name="OFIELD_Q6_FAR">      0.00000000</i>
   <i name="OFIELD_A">      0.00000000</i>
  </separator>
  <separator name="optional k-points parameters" >
   <i type="int" name="KPOINTS_OPT_MODE">     1</i>
   <i type="logical" name="LKPOINTS_OPT"> F  </i>
  </separator>
 </parameters>
 <atominfo>
  <atoms>       2 </atoms>
  <types>       1 </types>
  <array name="atoms" >
   <dimension dim="1">ion</dimension>
   <field type="string">element</field>
   <field type="int">atomtype</field>
   <set>
    <rc><c>Ta</c><c>   1</c></rc>
    <rc><c>Ta</c><c>   1</c></rc>
   </set>
  </array>
  <array name="atomtypes" >
   <dimension dim="1">type</dimension>
   <field type="int">atomspertype</field>
   <field type="string">element</field>
   <field>mass</field>
   <field>valence</field>
   <field type="string">pseudopotential</field>
   <set>
    <rc><c>   2</c><c>Ta</c><c>    180.94800000</c><c>     11.00000000</c><c>  PAW_PBE Ta_pv 07Sep2000               </c></rc>
   </set>
  </array>
 </atominfo>
 <structure name="initialpos" >
  <crystal>
   <varray name="basis" >
    <v>       3.32136372       0.00000000       0.00000000 </v>
    <v>       0.00000000       3.32136372       0.00000000 </v>
    <v>       0.00000000       0.00000000       3.32136372 </v>
   </varray>
   <i name="volume">     36.63948078 </i>
   <varray name="rec_basis" >
    <v>       0.30108115      -0.00000000       0.00000000 </v>
    <v>       0.00000000       0.30108115       0.00000000 </v>
    <v>      -0.00000000      -0.00000000       0.30108115 </v>
   </varray>
  </crystal>
  <varray name="positions" >
   <v>       0.00000000       0.00000000       0.00000000 </v>
   <v>       0.50000000       0.50000000       0.50000000 </v>
  </varray>
 </structure>
 <calculation>
  <scstep>
   <time name="dav">    0.40    0.50</time>
   <time name="total">    0.53    0.64</time>
   <energy>
    <i name="alphaZ">    250.27956962 </i>
    <i name="ewald">  -1909.12746107 </i>
    <i name="hartreedc">   -256.29684155 </i>
    <i name="XCdc">     46.97694961 </i>
    <i name="pawpsdc">   1641.89683898 </i>
    <i name="pawaedc">  -1608.88133722 </i>
    <i name="eentropy">     -0.00214426 </i>
    <i name="bandstr">   -125.02016915 </i>
    <i name="atom">   2094.39351137 </i>
    <i name="e_fr_energy">    134.21891633 </i>
    <i name="e_wo_entrp">    134.22106059 </i>
    <i name="e_0_energy">    134.21963108 </i>
   </energy>
  </scstep>
  <scstep>
   <time name="dav">    0.35    0.37</time>
   <time name="total">    0.35    0.37</time>
   <energy>
    <i name="e_fr_energy">    -21.74760585 </i>
    <i name="e_wo_entrp">    -21.74571202 </i>
    <i name="e_0_energy">    -21.74697458 </i>
   </energy>
  </scstep>
  <scstep>
   <time name="dav">    0.33    0.35</time>
   <time name="total">    0.34    0.35</time>
   <energy>
    <i name="e_fr_energy">    -24.56354060 </i>
    <i name="e_wo_entrp">    -24.56279764 </i>
    <i name="e_0_energy">    -24.56329294 </i>
   </energy>
  </scstep>
  <scstep>
   <time name="dav">    0.35    0.37</time>
   <time name="total">    0.35    0.37</time>
   <energy>
    <i name="e_fr_energy">    -24.58274080 </i>
    <i name="e_wo_entrp">    -24.58192418 </i>
    <i name="e_0_energy">    -24.58246860 </i>
   </energy>
  </scstep>
  <scstep>
   <time name="dav">    0.32    0.34</time>
   <time name="total">    0.34    0.36</time>
   <energy>
    <i name="e_fr_energy">    -24.58289058 </i>
    <i name="e_wo_entrp">    -24.58207346 </i>
    <i name="e_0_energy">    -24.58261821 </i>
   </energy>
  </scstep>
  <scstep>
   <time name="dav">    0.31    0.31</time>
   <time name="total">    0.44    0.46</time>
   <energy>
    <i name="e_fr_energy">    -23.85650204 </i>
    <i name="e_wo_entrp">    -23.85829062 </i>
    <i name="e_0_energy">    -23.85709823 </i>
   </energy>
  </scstep>
  <scstep>
   <time name="dav">    0.33    0.33</time>
   <time name="total">    0.47    0.48</time>
   <energy>
    <i name="e_fr_energy">    -23.63162350 </i>
    <i name="e_wo_entrp">    -23.63196747 </i>
    <i name="e_0_energy">    -23.63173816 </i>
   </energy>
  </scstep>
  <scstep>
   <time name="dav">    0.31    0.31</time>
   <time name="total">    0.44    0.45</time>
   <energy>
    <i name="e_fr_energy">    -23.62902323 </i>
    <i name="e_wo_entrp">    -23.62935534 </i>
    <i name="e_0_energy">    -23.62913393 </i>
   </energy>
  </scstep>
  <scstep>
   <time name="dav">    0.30    0.30</time>
   <time name="total">    0.43    0.44</time>
   <energy>
    <i name="e_fr_energy">    -23.62902147 </i>
    <i name="e_wo_entrp">    -23.62933948 </i>
    <i name="e_0_energy">    -23.62912747 </i>
   </energy>
  </scstep>
  <scstep>
   <time name="dav">    0.23    0.23</time>
   <time name="total">    0.36    0.37</time>
   <energy>
    <i name="e_fr_energy">    -23.62900795 </i>
    <i name="e_wo_entrp">    -23.62932501 </i>
    <i name="e_0_energy">    -23.62911363 </i>
   </energy>
  </scstep>
  <scstep>
   <time name="dav">    0.21    0.21</time>
   <time name="total">    0.33    0.35</time>
   <energy>
    <i name="alphaZ">    250.27956962 </i>
    <i name="ewald">  -1909.12746107 </i>
    <i name="hartreedc">   -225.35131770 </i>
    <i name="XCdc">     45.51085167 </i>
    <i name="pawpsdc">   3155.47327992 </i>
    <i name="pawaedc">  -3128.12093812 </i>
    <i name="eentropy">      0.00031756 </i>
    <i name="bandstr">   -306.68682234 </i>
    <i name="atom">   2094.39351137 </i>
    <i name="e_fr_energy">    -23.62900909 </i>
    <i name="e_wo_entrp">    -23.62932665 </i>
    <i name="e_0_energy">    -23.62911495 </i>
   </energy>
  </scstep>
  <structure>
   <crystal>
    <varray name="basis" >
     <v>       3.32136372       0.00000000       0.00000000 </v>
     <v>       0.00000000       3.32136372       0.00000000 </v>
     <v>       0.00000000       0.00000000       3.32136372 </v>
    </varray>
    <i name="volume">     36.63948078 </i>
    <varray name="rec_basis" >
     <v>       0.30108115      -0.00000000       0.00000000 </v>
     <v>       0.00000000       0.30108115       0.00000000 </v>
     <v>      -0.00000000      -0.00000000       0.30108115 </v>
    </varray>
   </crystal>
   <varray name="positions" >
    <v>       0.00000000       0.00000000       0.00000000 </v>
    <v>       0.50000000       0.50000000       0.50000000 </v>
   </varray>
  </structure>
  <varray name="forces" >
   <v>       0.00000000      -0.00000000       0.00000000 </v>
   <v>      -0.00000000       0.00000000      -0.00000000 </v>
  </varray>
  <varray name="stress" >
   <v>      -0.04294977       0.00000000      -0.00000000 </v>
   <v>       0.00000000      -0.04294977      -0.00000000 </v>
   <v>      -0.00000000      -0.00000000      -0.04294977 </v>
  </varray>
  <energy>
   <i name="e_fr_energy">    -23.62900909 </i>
   <i name="e_wo_entrp">    -23.62932665 </i>
   <i name="e_0_energy">    -23.62911495 </i>
  </energy>
  <time name="totalsc">    4.84    5.12</time>
  <eigenvalues>
   <array>
    <dimension dim="1">band</dimension>
    <dimension dim="2">kpoint</dimension>
    <dimension dim="3">spin</dimension>
    <field>eigene</field>
    <field>occ</field>
    <set>
     <set comment="spin 1">
      <set comment="kpoint 1">
       <r>  -28.5781    1.0000 </r>
       <r>  -28.5781    1.0000 </r>
       <r>  -28.5781    1.0000 </r>
       <r>  -27.8030    1.0000 </r>
       <r>  -27.8030    1.0000 </r>
       <r>  -27.8030    1.0000 </r>
       <r>   -2.5013    1.0000 </r>
       <r>    1.6453    1.0000 </r>
       <r>    1.6453    1.0000 </r>
       <r>    6.0766   -0.0000 </r>
       <r>    6.0766   -0.0000 </r>
       <r>    6.0766   -0.0000 </r>
       <r>    9.2909    0.0000 </r>
       <r>    9.2909    0.0000 </r>
       <r>   12.0378    0.0000 </r>
       <r>   12.0378    0.0000 </r>
       <r>   12.0378    0.0000 </r>
       <r>   13.8505    0.0000 </r>
      </set>
      <set comment="kpoint 2">
       <r>  -28.5786    1.0000 </r>
       <r>  -28.5585    1.0000 </r>
       <r>  -28.5585    1.0000 </r>
       <r>  -27.8436    1.0000 </r>
       <r>  -27.8213    1.0000 </r>
       <r>  -27.8213    1.0000 </r>
       <r>   -2.2821    1.0000 </r>
       <r>    1.7627    1.0000 </r>
       <r>    1.8089    1.0000 </r>
       <r>    6.0450   -0.0000 </r>
       <r>    6.0450   -0.0000 </r>
       <r>    6.1805   -0.0000 </r>
       <r>    8.9266    0.0000 </r>
       <r>    9.4148    0.0000 </r>
       <r>   10.9202    0.0000 </r>
       <r>   10.9202    0.0000 </r>
       <r>   11.8129    0.0000 </r>
       <r>   13.1302    0.0000 </r>
      </set>
      <set comment="kpoint 3">
       <r>  -28.5748    1.0000 </r>
       <r>  -28.5019    1.0000 </r>
       <r>  -28.5019    1.0000 </r>
       <r>  -27.9540    1.0000 </r>
       <r>  -27.8745    1.0000 </r>
       <r>  -27.8745    1.0000 </r>
       <r>   -1.6507    1.0000 </r>
       <r>    2.1130    1.0000 </r>
       <r>    2.2163    1.0000 </r>
       <r>    5.9903   -0.0000 </r>
       <r>    5.9903   -0.0000 </r>
       <r>    6.4888   -0.0000 </r>
       <r>    8.0018   -0.0000 </r>
       <r>    9.4601    0.0000 </r>
       <r>    9.4601    0.0000 </r>
       <r>    9.7525    0.0000 </r>
       <r>   11.2029    0.0000 </r>
       <r>   11.7180    0.0000 </r>
      </set>
      <set comment="kpoint 4">
       <r>  -28.5531    1.0000 </r>
       <r>  -28.4142    1.0000 </r>
       <r>  -28.4142    1.0000 </r>
       <r>  -28.1060    1.0000 </r>
       <r>  -27.9580    1.0000 </r>
       <r>  -27.9580    1.0000 </r>
       <r>   -0.6847    1.0000 </r>
       <r>    2.5813    1.0000 </r>
       <r>    2.6895    1.0000 </r>
       <r>    6.0043   -0.0000 </r>
       <r>    6.0043   -0.0000 </r>
       <r>    6.8188   -0.0000 </r>
       <r>    6.9915   -0.0000 </r>
       <r>    8.2227    0.0000 </r>
       <r>    8.2227    0.0000 </r>
       <r>   10.1781    0.0000 </r>
       <r>   10.3539    0.0000 </r>
       <r>   10.5210    0.0000 </r>
      </set>
      <set comment="kpoint 5">
       <r>  -28.4983    1.0000 </r>
       <r>  -28.3044    1.0000 </r>
       <r>  -28.3044    1.0000 </r>
       <r>  -28.2649    1.0000 </r>
       <r>  -28.0644    1.0000 </r>
       <r>  -28.0644    1.0000 </r>
       <r>    0.4844    1.0000 </r>
       <r>    2.4478    1.0000 </r>
       <r>    3.4797    1.0000 </r>
       <r>    5.5973   -0.0006 </r>
       <r>    6.1803   -0.0000 </r>
       <r>    6.1803   -0.0000 </r>
       <r>    7.2624   -0.0000 </r>
       <r>    7.2624   -0.0000 </r>
       <r>    7.6700   -0.0000 </r>
       <r>    9.4134    0.0000 </r>
       <r>   10.0661    0.0000 </r>
       <r>   10.4282    0.0000 </r>
      </set>
      <set comment="kpoint 6">
       <r>  -28.4013    1.0000 </r>
       <r>  -28.4013    1.0000 </r>
       <r>  -28.1837    1.0000 </r>
       <r>  -28.1837    1.0000 </r>
       <r>  -28.1837    1.0000 </r>
       <r>  -28.1837    1.0000 </r>
       <r>    1.6433    1.0000 </r>
       <r>    1.6433    1.0000 </r>
       <r>    4.4617    1.0000 </r>
       <r>    4.4617    1.0000 </r>
       <r>    6.5866   -0.0000 </r>
       <r>    6.5866   -0.0000 </r>
       <r>    6.5866   -0.0000 </r>
       <r>    6.5866   -0.0000 </r>
       <r>    8.4936    0.0000 </r>
       <r>    8.4936    0.0000 </r>
       <r>   10.2719    0.0000 </r>
       <r>   10.2719    0.0000 </r>
      </set>
      <set comment="kpoint 7">
       <r>  -28.6108    1.0000 </r>
       <r>  -28.5398    1.0000 </r>
       <r>  -28.5087    1.0000 </r>
       <r>  -27.9173    1.0000 </r>
       <r>  -27.8385    1.0000 </r>
       <r>  -27.8036    1.0000 </r>
       <r>   -2.0702    1.0000 </r>
       <r>    1.8921    1.0000 </r>
       <r>    1.9562    1.0000 </r>
       <r>    5.8040   -0.0000 </r>
       <r>    5.9777   -0.0000 </r>
       <r>    6.5028   -0.0000 </r>
       <r>    8.9031    0.0000 </r>
       <r>    9.2962    0.0000 </r>
       <r>    9.9837    0.0000 </r>
       <r>    9.9856    0.0000 </r>
       <r>   12.1203    0.0000 </r>
       <r>   13.8065    0.0000 </r>
      </set>
      <set comment="kpoint 8">
       <r>  -28.6326    1.0000 </r>
       <r>  -28.4855    1.0000 </r>
       <r>  -28.4305    1.0000 </r>
       <r>  -28.0492    1.0000 </r>
       <r>  -27.8886    1.0000 </r>
       <r>  -27.8279    1.0000 </r>
       <r>   -1.4621    1.0000 </r>
       <r>    2.2138    1.0000 </r>
       <r>    2.3731    1.0000 </r>
       <r>    5.5978   -0.0006 </r>
       <r>    5.8243   -0.0000 </r>
       <r>    6.9837   -0.0000 </r>
       <r>    8.2541    0.0000 </r>
       <r>    8.6799    0.0000 </r>
       <r>    8.6894    0.0000 </r>
       <r>    9.5945    0.0000 </r>
       <r>   11.8241    0.0000 </r>
       <r>   12.6402    0.0000 </r>
      </set>
      <set comment="kpoint 9">
       <r>  -28.6279    1.0000 </r>
       <r>  -28.4016    1.0000 </r>
       <r>  -28.3324    1.0000 </r>
       <r>  -28.2085    1.0000 </r>
       <r>  -27.9676    1.0000 </r>
       <r>  -27.8933    1.0000 </r>
       <r>   -0.5377    1.0000 </r>
       <r>    2.6084    1.0000 </r>
       <r>    2.8601    1.0000 </r>
       <r>    5.5276   -0.0092 </r>
       <r>    5.6219   -0.0002 </r>
       <r>    7.3870   -0.0000 </r>
       <r>    7.5460   -0.0000 </r>
       <r>    7.5922   -0.0000 </r>
       <r>    7.7207   -0.0000 </r>
       <r>   10.0687    0.0000 </r>
       <r>   11.0619    0.0000 </r>
       <r>   11.2418    0.0000 </r>
      </set>
      <set comment="kpoint 10">
       <r>  -28.5852    1.0000 </r>
       <r>  -28.3665    1.0000 </r>
       <r>  -28.2967    1.0000 </r>
       <r>  -28.2196    1.0000 </r>
       <r>  -28.0684    1.0000 </r>
       <r>  -27.9883    1.0000 </r>
       <r>    0.5717    1.0000 </r>
       <r>    2.4670    1.0000 </r>
       <r>    3.5389    1.0000 </r>
       <r>    5.1736    1.0238 </r>
       <r>    5.6516   -0.0000 </r>
       <r>    6.6462   -0.0000 </r>
       <r>    6.8708   -0.0000 </r>
       <r>    7.2309   -0.0000 </r>
       <r>    8.3351    0.0000 </r>
       <r>   10.1343    0.0000 </r>
       <r>   10.3755    0.0000 </r>
       <r>   10.4153    0.0000 </r>
      </set>
      <set comment="kpoint 11">
       <r>  -28.4971    1.0000 </r>
       <r>  -28.4971    1.0000 </r>
       <r>  -28.1818    1.0000 </r>
       <r>  -28.1818    1.0000 </r>
       <r>  -28.1011    1.0000 </r>
       <r>  -28.1011    1.0000 </r>
       <r>    1.6716    1.0000 </r>
       <r>    1.6716    1.0000 </r>
       <r>    4.3758    1.0000 </r>
       <r>    4.3758    1.0000 </r>
       <r>    6.0158   -0.0000 </r>
       <r>    6.0158   -0.0000 </r>
       <r>    6.9382   -0.0000 </r>
       <r>    6.9382   -0.0000 </r>
       <r>    9.1972    0.0000 </r>
       <r>    9.1972    0.0000 </r>
       <r>   10.3347    0.0000 </r>
       <r>   10.3347    0.0000 </r>
      </set>
      <set comment="kpoint 12">
       <r>  -28.6955    1.0000 </r>
       <r>  -28.4382    1.0000 </r>
       <r>  -28.3233    1.0000 </r>
       <r>  -28.2073    1.0000 </r>
       <r>  -27.9301    1.0000 </r>
       <r>  -27.8051    1.0000 </r>
       <r>   -0.9287    1.0000 </r>
       <r>    2.3986    1.0000 </r>
       <r>    2.8538    1.0000 </r>
       <r>    5.1687    1.0216 </r>
       <r>    5.5225   -0.0107 </r>
       <r>    7.5167   -0.0000 </r>
       <r>    7.6354   -0.0000 </r>
       <r>    7.7379   -0.0000 </r>
       <r>    8.6086    0.0000 </r>
       <r>    9.3744    0.0000 </r>
       <r>   12.3423    0.0000 </r>
       <r>   13.5055    0.0000 </r>
      </set>
      <set comment="kpoint 13">
       <r>  -28.7278    1.0000 </r>
       <r>  -28.3781    1.0000 </r>
       <r>  -28.3653    1.0000 </r>
       <r>  -28.2080    1.0000 </r>
       <r>  -27.9958    1.0000 </r>
       <r>  -27.8285    1.0000 </r>
       <r>   -0.1442    1.0000 </r>
       <r>    2.5145    1.0000 </r>
       <r>    3.4472    1.0000 </r>
       <r>    4.9184    1.0000 </r>
       <r>    5.2609    0.9634 </r>
       <r>    6.4784   -0.0000 </r>
       <r>    7.1152   -0.0000 </r>
       <r>    8.2737    0.0000 </r>
       <r>    8.5771    0.0000 </r>
       <r>    9.7865    0.0000 </r>
       <r>   12.1004    0.0000 </r>
       <r>   12.3893    0.0000 </r>
      </set>
      <set comment="kpoint 14">
       <r>  -28.7153    1.0000 </r>
       <r>  -28.5333    1.0000 </r>
       <r>  -28.2749    1.0000 </r>
       <r>  -28.0916    1.0000 </r>
       <r>  -28.0805    1.0000 </r>
       <r>  -27.8912    1.0000 </r>
       <r>    0.7539    1.0000 </r>
       <r>    2.2671    1.0000 </r>
       <r>    4.0057    1.0000 </r>
       <r>    4.9015    1.0000 </r>
       <r>    4.9833    1.0000 </r>
       <r>    5.6781   -0.0000 </r>
       <r>    7.3045   -0.0000 </r>
       <r>    7.8781   -0.0000 </r>
       <r>    9.4847    0.0000 </r>
       <r>   10.2204    0.0000 </r>
       <r>   11.1303    0.0000 </r>
       <r>   11.3599    0.0000 </r>
      </set>
      <set comment="kpoint 15">
       <r>  -28.6500    1.0000 </r>
       <r>  -28.6500    1.0000 </r>
       <r>  -28.1766    1.0000 </r>
       <r>  -28.1766    1.0000 </r>
       <r>  -27.9826    1.0000 </r>
       <r>  -27.9826    1.0000 </r>
       <r>    1.6131    1.0000 </r>
       <r>    1.6131    1.0000 </r>
       <r>    4.5499    1.0000 </r>
       <r>    4.5499    1.0000 </r>
       <r>    5.1503    1.0138 </r>
       <r>    5.1503    1.0138 </r>
       <r>    7.6624   -0.0000 </r>
       <r>    7.6624   -0.0000 </r>
       <r>   10.4350    0.0000 </r>
       <r>   10.4350    0.0000 </r>
       <r>   10.4743    0.0000 </r>
       <r>   10.4743    0.0000 </r>
      </set>
      <set comment="kpoint 16">
       <r>  -28.7985    1.0000 </r>
       <r>  -28.5489    1.0000 </r>
       <r>  -28.3100    1.0000 </r>
       <r>  -28.0861    1.0000 </r>
       <r>  -28.0413    1.0000 </r>
       <r>  -27.8071    1.0000 </r>
       <r>    0.3726    1.0000 </r>
       <r>    2.2526    1.0000 </r>
       <r>    4.2296    1.0000 </r>
       <r>    4.4979    1.0000 </r>
       <r>    5.2019    1.0347 </r>
       <r>    5.5450   -0.0051 </r>
       <r>    7.0576   -0.0000 </r>
       <r>    8.9118    0.0000 </r>
       <r>    9.6161    0.0000 </r>
       <r>    9.6317    0.0000 </r>
       <r>   12.6106    0.0000 </r>
       <r>   12.6299    0.0000 </r>
      </set>
      <set comment="kpoint 17">
       <r>  -28.8215    1.0000 </r>
       <r>  -28.6918    1.0000 </r>
       <r>  -28.2424    1.0000 </r>
       <r>  -28.1009    1.0000 </r>
       <r>  -27.9768    1.0000 </r>
       <r>  -27.8290    1.0000 </r>
       <r>    0.8909    1.0000 </r>
       <r>    1.8431    1.0000 </r>
       <r>    4.3311    1.0000 </r>
       <r>    4.8554    1.0000 </r>
       <r>    4.9083    1.0000 </r>
       <r>    5.3324    0.4960 </r>
       <r>    7.6403   -0.0000 </r>
       <r>    8.7949    0.0000 </r>
       <r>   10.0089    0.0000 </r>
       <r>   10.6857    0.0000 </r>
       <r>   11.5592    0.0000 </r>
       <r>   12.4051    0.0000 </r>
      </set>
      <set comment="kpoint 18">
       <r>  -28.7862    1.0000 </r>
       <r>  -28.7862    1.0000 </r>
       <r>  -28.1701    1.0000 </r>
       <r>  -28.1701    1.0000 </r>
       <r>  -27.8883    1.0000 </r>
       <r>  -27.8883    1.0000 </r>
       <r>    1.3763    1.0000 </r>
       <r>    1.3763    1.0000 </r>
       <r>    4.4472    1.0000 </r>
       <r>    4.4472    1.0000 </r>
       <r>    5.2980    0.7701 </r>
       <r>    5.2980    0.7701 </r>
       <r>    8.3977    0.0000 </r>
       <r>    8.3977    0.0000 </r>
       <r>   10.5419    0.0000 </r>
       <r>   10.5419    0.0000 </r>
       <r>   11.6617    0.0000 </r>
       <r>   11.6617    0.0000 </r>
      </set>
      <set comment="kpoint 19">
       <r>  -28.8805    1.0000 </r>
       <r>  -28.8131    1.0000 </r>
       <r>  -28.2040    1.0000 </r>
       <r>  -28.1296    1.0000 </r>
       <r>  -27.8871    1.0000 </r>
       <r>  -27.8087    1.0000 </r>
       <r>    0.9825    1.0000 </r>
       <r>    1.4298    1.0000 </r>
       <r>    4.0212    1.0000 </r>
       <r>    4.2845    1.0000 </r>
       <r>    5.8486   -0.0000 </r>
       <r>    5.9933   -0.0000 </r>
       <r>    8.2533    0.0000 </r>
       <r>    9.2252    0.0000 </r>
       <r>    9.9729    0.0000 </r>
       <r>   11.1607    0.0000 </r>
       <r>   11.7859    0.0000 </r>
       <r>   12.8745    0.0000 </r>
      </set>
      <set comment="kpoint 20">
       <r>  -28.8787    1.0000 </r>
       <r>  -28.8787    1.0000 </r>
       <r>  -28.1649    1.0000 </r>
       <r>  -28.1649    1.0000 </r>
       <r>  -27.8293    1.0000 </r>
       <r>  -27.8293    1.0000 </r>
       <r>    1.1388    1.0000 </r>
       <r>    1.1388    1.0000 </r>
       <r>    4.0028    1.0000 </r>
       <r>    4.0028    1.0000 </r>
       <r>    6.3112   -0.0000 </r>
       <r>    6.3112   -0.0000 </r>
       <r>    8.9504    0.0000 </r>
       <r>    8.9504    0.0000 </r>
       <r>   10.3707    0.0000 </r>
       <r>   10.3707    0.0000 </r>
       <r>   12.6042    0.0000 </r>
       <r>   12.6042    0.0000 </r>
      </set>
      <set comment="kpoint 21">
       <r>  -28.9115    1.0000 </r>
       <r>  -28.9115    1.0000 </r>
       <r>  -28.1629    1.0000 </r>
       <r>  -28.1629    1.0000 </r>
       <r>  -27.8094    1.0000 </r>
       <r>  -27.8094    1.0000 </r>
       <r>    1.0456    1.0000 </r>
       <r>    1.0456    1.0000 </r>
       <r>    3.8514    1.0000 </r>
       <r>    3.8514    1.0000 </r>
       <r>    6.8608   -0.0000 </r>
       <r>    6.8608   -0.0000 </r>
       <r>    9.1612    0.0000 </r>
       <r>    9.1612    0.0000 </r>
       <r>   10.1672    0.0000 </r>
       <r>   10.1672    0.0000 </r>
       <r>   12.9710    0.0000 </r>
       <r>   12.9710    0.0000 </r>
      </set>
      <set comment="kpoint 22">
       <r>  -28.5905    1.0000 </r>
       <r>  -28.5905    1.0000 </r>
       <r>  -28.4440    1.0000 </r>
       <r>  -27.9839    1.0000 </r>
       <r>  -27.8227    1.0000 </r>
       <r>  -27.8227    1.0000 </r>
       <r>   -1.8639    1.0000 </r>
       <r>    2.0615    1.0000 </r>
       <r>    2.0615    1.0000 </r>
       <r>    5.7314   -0.0000 </r>
       <r>    5.7314   -0.0000 </r>
       <r>    6.8311   -0.0000 </r>
       <r>    8.6136    0.0000 </r>
       <r>    9.0603    0.0000 </r>
       <r>    9.0603    0.0000 </r>
       <r>   11.0151    0.0000 </r>
       <r>   11.0151    0.0000 </r>
       <r>   15.1473    0.0000 </r>
      </set>
      <set comment="kpoint 23">
       <r>  -28.6346    1.0000 </r>
       <r>  -28.5318    1.0000 </r>
       <r>  -28.3544    1.0000 </r>
       <r>  -28.1169    1.0000 </r>
       <r>  -27.8783    1.0000 </r>
       <r>  -27.8308    1.0000 </r>
       <r>   -1.2734    1.0000 </r>
       <r>    2.3723    1.0000 </r>
       <r>    2.4765    1.0000 </r>
       <r>    5.4512   -0.0353 </r>
       <r>    5.5450   -0.0051 </r>
       <r>    7.3593   -0.0000 </r>
       <r>    7.4007   -0.0000 </r>
       <r>    8.4458    0.0000 </r>
       <r>    9.4755    0.0000 </r>
       <r>    9.6048    0.0000 </r>
       <r>   11.0658    0.0000 </r>
       <r>   13.8156    0.0000 </r>
      </set>
      <set comment="kpoint 24">
       <r>  -28.6492    1.0000 </r>
       <r>  -28.4406    1.0000 </r>
       <r>  -28.2742    1.0000 </r>
       <r>  -28.2544    1.0000 </r>
       <r>  -27.9655    1.0000 </r>
       <r>  -27.8757    1.0000 </r>
       <r>   -0.3818    1.0000 </r>
       <r>    2.8004    1.0000 </r>
       <r>    2.8718    1.0000 </r>
       <r>    5.2808    0.8766 </r>
       <r>    5.3469    0.3750 </r>
       <r>    6.4888   -0.0000 </r>
       <r>    7.7012   -0.0000 </r>
       <r>    8.0891    0.0000 </r>
       <r>    8.4420    0.0000 </r>
       <r>    9.9854    0.0000 </r>
       <r>   10.3980    0.0000 </r>
       <r>   12.4861    0.0000 </r>
      </set>
      <set comment="kpoint 25">
       <r>  -28.6223    1.0000 </r>
       <r>  -28.4259    1.0000 </r>
       <r>  -28.3265    1.0000 </r>
       <r>  -28.1486    1.0000 </r>
       <r>  -28.0765    1.0000 </r>
       <r>  -27.9500    1.0000 </r>
       <r>    0.6791    1.0000 </r>
       <r>    2.5500    1.0000 </r>
       <r>    3.5226    1.0000 </r>
       <r>    4.8721    1.0000 </r>
       <r>    5.4729   -0.0314 </r>
       <r>    6.0927   -0.0000 </r>
       <r>    7.1760   -0.0000 </r>
       <r>    7.6017   -0.0000 </r>
       <r>    8.8788    0.0000 </r>
       <r>    9.8440    0.0000 </r>
       <r>   10.3385    0.0000 </r>
       <r>   11.3185    0.0000 </r>
      </set>
      <set comment="kpoint 26">
       <r>  -28.5469    1.0000 </r>
       <r>  -28.5469    1.0000 </r>
       <r>  -28.2009    1.0000 </r>
       <r>  -28.2009    1.0000 </r>
       <r>  -28.0442    1.0000 </r>
       <r>  -28.0442    1.0000 </r>
       <r>    1.7345    1.0000 </r>
       <r>    1.7345    1.0000 </r>
       <r>    4.2424    1.0000 </r>
       <r>    4.2424    1.0000 </r>
       <r>    5.7826   -0.0000 </r>
       <r>    5.7826   -0.0000 </r>
       <r>    7.1469   -0.0000 </r>
       <r>    7.1469   -0.0000 </r>
       <r>    9.5781    0.0000 </r>
       <r>    9.5781    0.0000 </r>
       <r>   10.5338    0.0000 </r>
       <r>   10.5338    0.0000 </r>
      </set>
      <set comment="kpoint 27">
       <r>  -28.6734    1.0000 </r>
       <r>  -28.5112    1.0000 </r>
       <r>  -28.2560    1.0000 </r>
       <r>  -28.2506    1.0000 </r>
       <r>  -27.9132    1.0000 </r>
       <r>  -27.8264    1.0000 </r>
       <r>   -0.7414    1.0000 </r>
       <r>    2.6011    1.0000 </r>
       <r>    2.9210    1.0000 </r>
       <r>    5.0673    1.0006 </r>
       <r>    5.2498    0.9955 </r>
       <r>    6.2127   -0.0000 </r>
       <r>    8.1635    0.0000 </r>
       <r>    8.7457    0.0000 </r>
       <r>    8.9511    0.0000 </r>
       <r>    9.3238    0.0000 </r>
       <r>   11.2342    0.0000 </r>
       <r>   14.8282    0.0000 </r>
      </set>
      <set comment="kpoint 28">
       <r>  -28.7117    1.0000 </r>
       <r>  -28.4308    1.0000 </r>
       <r>  -28.4123    1.0000 </r>
       <r>  -28.1463    1.0000 </r>
       <r>  -27.9890    1.0000 </r>
       <r>  -27.8432    1.0000 </r>
       <r>    0.0356    1.0000 </r>
       <r>    2.7370    1.0000 </r>
       <r>    3.4419    1.0000 </r>
       <r>    4.7977    1.0000 </r>
       <r>    5.0201    1.0000 </r>
       <r>    5.5456   -0.0050 </r>
       <r>    8.1205    0.0000 </r>
       <r>    8.3966    0.0000 </r>
       <r>    9.0524    0.0000 </r>
       <r>    9.7651    0.0000 </r>
       <r>   10.9321    0.0000 </r>
       <r>   13.7317    0.0000 </r>
      </set>
      <set comment="kpoint 29">
       <r>  -28.7106    1.0000 </r>
       <r>  -28.5541    1.0000 </r>
       <r>  -28.3237    1.0000 </r>
       <r>  -28.0900    1.0000 </r>
       <r>  -28.0474    1.0000 </r>
       <r>  -27.8894    1.0000 </r>
       <r>    0.9145    1.0000 </r>
       <r>    2.4428    1.0000 </r>
       <r>    3.8563    1.0000 </r>
       <r>    4.5789    1.0000 </r>
       <r>    5.0004    1.0000 </r>
       <r>    5.3900    0.0891 </r>
       <r>    7.7733   -0.0000 </r>
       <r>    7.9950   -0.0000 </r>
       <r>    9.8959    0.0000 </r>
       <r>   10.2797    0.0000 </r>
       <r>   10.3053    0.0000 </r>
       <r>   12.4666    0.0000 </r>
      </set>
      <set comment="kpoint 30">
       <r>  -28.6579    1.0000 </r>
       <r>  -28.6579    1.0000 </r>
       <r>  -28.2056    1.0000 </r>
       <r>  -28.2056    1.0000 </r>
       <r>  -27.9596    1.0000 </r>
       <r>  -27.9596    1.0000 </r>
       <r>    1.7566    1.0000 </r>
       <r>    1.7566    1.0000 </r>
       <r>    4.2601    1.0000 </r>
       <r>    4.2601    1.0000 </r>
       <r>    5.2019    1.0347 </r>
       <r>    5.2019    1.0347 </r>
       <r>    7.8074   -0.0000 </r>
       <r>    7.8074   -0.0000 </r>
       <r>   10.0711    0.0000 </r>
       <r>   10.0711    0.0000 </r>
       <r>   11.2613    0.0000 </r>
       <r>   11.2613    0.0000 </r>
      </set>
      <set comment="kpoint 31">
       <r>  -28.7741    1.0000 </r>
       <r>  -28.5623    1.0000 </r>
       <r>  -28.3710    1.0000 </r>
       <r>  -28.0453    1.0000 </r>
       <r>  -28.0395    1.0000 </r>
       <r>  -27.8310    1.0000 </r>
       <r>    0.5781    1.0000 </r>
       <r>    2.4615    1.0000 </r>
       <r>    4.2263    1.0000 </r>
       <r>    4.4181    1.0000 </r>
       <r>    4.9472    1.0000 </r>
       <r>    4.9492    1.0000 </r>
       <r>    7.7679   -0.0000 </r>
       <r>    8.9572    0.0000 </r>
       <r>    9.6461    0.0000 </r>
       <r>   10.1108    0.0000 </r>
       <r>   11.3295    0.0000 </r>
       <r>   14.1111    0.0000 </r>
      </set>
      <set comment="kpoint 32">
       <r>  -28.8000    1.0000 </r>
       <r>  -28.6899    1.0000 </r>
       <r>  -28.2876    1.0000 </r>
       <r>  -28.1108    1.0000 </r>
       <r>  -27.9590    1.0000 </r>
       <r>  -27.8479    1.0000 </r>
       <r>    1.1020    1.0000 </r>
       <r>    2.0352    1.0000 </r>
       <r>    4.2423    1.0000 </r>
       <r>    4.4676    1.0000 </r>
       <r>    5.0019    1.0000 </r>
       <r>    5.1204    1.0054 </r>
       <r>    7.9959   -0.0000 </r>
       <r>    8.8457    0.0000 </r>
       <r>   10.0060    0.0000 </r>
       <r>   10.8813    0.0000 </r>
       <r>   11.1689    0.0000 </r>
       <r>   13.3135    0.0000 </r>
      </set>
      <set comment="kpoint 33">
       <r>  -28.7727    1.0000 </r>
       <r>  -28.7727    1.0000 </r>
       <r>  -28.1967    1.0000 </r>
       <r>  -28.1967    1.0000 </r>
       <r>  -27.8919    1.0000 </r>
       <r>  -27.8919    1.0000 </r>
       <r>    1.5736    1.0000 </r>
       <r>    1.5736    1.0000 </r>
       <r>    4.2778    1.0000 </r>
       <r>    4.2778    1.0000 </r>
       <r>    5.2366    1.0196 </r>
       <r>    5.2366    1.0196 </r>
       <r>    8.5244    0.0000 </r>
       <r>    8.5244    0.0000 </r>
       <r>   10.3127    0.0000 </r>
       <r>   10.3127    0.0000 </r>
       <r>   12.2538    0.0000 </r>
       <r>   12.2538    0.0000 </r>
      </set>
      <set comment="kpoint 34">
       <r>  -28.8543    1.0000 </r>
       <r>  -28.7973    1.0000 </r>
       <r>  -28.2375    1.0000 </r>
       <r>  -28.1428    1.0000 </r>
       <r>  -27.8922    1.0000 </r>
       <r>  -27.8349    1.0000 </r>
       <r>    1.2099    1.0000 </r>
       <r>    1.6334    1.0000 </r>
       <r>    3.9734    1.0000 </r>
       <r>    4.1770    1.0000 </r>
       <r>    5.7206   -0.0000 </r>
       <r>    5.7331   -0.0000 </r>
       <r>    8.4792    0.0000 </r>
       <r>    9.2720    0.0000 </r>
       <r>   10.0025    0.0000 </r>
       <r>   10.8134    0.0000 </r>
       <r>   12.2197    0.0000 </r>
       <r>   13.4885    0.0000 </r>
      </set>
      <set comment="kpoint 35">
       <r>  -28.8550    1.0000 </r>
       <r>  -28.8550    1.0000 </r>
       <r>  -28.1865    1.0000 </r>
       <r>  -28.1865    1.0000 </r>
       <r>  -27.8502    1.0000 </r>
       <r>  -27.8502    1.0000 </r>
       <r>    1.3578    1.0000 </r>
       <r>    1.3578    1.0000 </r>
       <r>    3.9493    1.0000 </r>
       <r>    3.9493    1.0000 </r>
       <r>    6.0995   -0.0000 </r>
       <r>    6.0995   -0.0000 </r>
       <r>    9.0551    0.0000 </r>
       <r>    9.0551    0.0000 </r>
       <r>   10.2979    0.0000 </r>
       <r>   10.2979    0.0000 </r>
       <r>   13.0459    0.0000 </r>
       <r>   13.0459    0.0000 </r>
      </set>
      <set comment="kpoint 36">
       <r>  -28.8847    1.0000 </r>
       <r>  -28.8847    1.0000 </r>
       <r>  -28.1822    1.0000 </r>
       <r>  -28.1822    1.0000 </r>
       <r>  -27.8364    1.0000 </r>
       <r>  -27.8364    1.0000 </r>
       <r>    1.2707    1.0000 </r>
       <r>    1.2707    1.0000 </r>
       <r>    3.8171    1.0000 </r>
       <r>    3.8171    1.0000 </r>
       <r>    6.5904   -0.0000 </r>
       <r>    6.5904   -0.0000 </r>
       <r>    9.2530    0.0000 </r>
       <r>    9.2530    0.0000 </r>
       <r>   10.1826    0.0000 </r>
       <r>   10.1826    0.0000 </r>
       <r>   13.3484    0.0000 </r>
       <r>   13.3484    0.0000 </r>
      </set>
      <set comment="kpoint 37">
       <r>  -28.6091    1.0000 </r>
       <r>  -28.6091    1.0000 </r>
       <r>  -28.3679    1.0000 </r>
       <r>  -28.1490    1.0000 </r>
       <r>  -27.8882    1.0000 </r>
       <r>  -27.8882    1.0000 </r>
       <r>   -0.2187    1.0000 </r>
       <r>    3.1113    1.0000 </r>
       <r>    3.1113    1.0000 </r>
       <r>    4.8197    1.0000 </r>
       <r>    4.8197    1.0000 </r>
       <r>    5.0685    1.0006 </r>
       <r>    9.0468    0.0000 </r>
       <r>    9.1403    0.0000 </r>
       <r>    9.1403    0.0000 </r>
       <r>    9.9702    0.0000 </r>
       <r>    9.9702    0.0000 </r>
       <r>   14.9699    0.0000 </r>
      </set>
      <set comment="kpoint 38">
       <r>  -28.6818    1.0000 </r>
       <r>  -28.5093    1.0000 </r>
       <r>  -28.4974    1.0000 </r>
       <r>  -28.0576    1.0000 </r>
       <r>  -27.9852    1.0000 </r>
       <r>  -27.8792    1.0000 </r>
       <r>    0.5217    1.0000 </r>
       <r>    3.3196    1.0000 </r>
       <r>    3.3896    1.0000 </r>
       <r>    4.5298    1.0000 </r>
       <r>    4.5990    1.0000 </r>
       <r>    4.6276    1.0000 </r>
       <r>    8.8190    0.0000 </r>
       <r>    9.0185    0.0000 </r>
       <r>    9.6890    0.0000 </r>
       <r>   10.0353    0.0000 </r>
       <r>   10.1703    0.0000 </r>
       <r>   14.8921    0.0000 </r>
      </set>
      <set comment="kpoint 39">
       <r>  -28.7111    1.0000 </r>
       <r>  -28.6119    1.0000 </r>
       <r>  -28.3839    1.0000 </r>
       <r>  -28.1082    1.0000 </r>
       <r>  -27.9825    1.0000 </r>
       <r>  -27.8919    1.0000 </r>
       <r>    1.3091    1.0000 </r>
       <r>    2.7233    1.0000 </r>
       <r>    3.7006    1.0000 </r>
       <r>    4.2569    1.0000 </r>
       <r>    4.7083    1.0000 </r>
       <r>    4.9988    1.0000 </r>
       <r>    8.4538    0.0000 </r>
       <r>    8.4745    0.0000 </r>
       <r>    9.9499    0.0000 </r>
       <r>   10.0771    0.0000 </r>
       <r>   11.0936    0.0000 </r>
       <r>   13.7010    0.0000 </r>
      </set>
      <set comment="kpoint 40">
       <r>  -28.6875    1.0000 </r>
       <r>  -28.6875    1.0000 </r>
       <r>  -28.2456    1.0000 </r>
       <r>  -28.2456    1.0000 </r>
       <r>  -27.9267    1.0000 </r>
       <r>  -27.9267    1.0000 </r>
       <r>    2.0319    1.0000 </r>
       <r>    2.0319    1.0000 </r>
       <r>    3.9918    1.0000 </r>
       <r>    3.9918    1.0000 </r>
       <r>    5.0025    1.0000 </r>
       <r>    5.0025    1.0000 </r>
       <r>    8.2966    0.0000 </r>
       <r>    8.2966    0.0000 </r>
       <r>   10.0222    0.0000 </r>
       <r>   10.0222    0.0000 </r>
       <r>   12.3260    0.0000 </r>
       <r>   12.3260    0.0000 </r>
      </set>
      <set comment="kpoint 41">
       <r>  -28.7033    1.0000 </r>
       <r>  -28.5999    1.0000 </r>
       <r>  -28.4847    1.0000 </r>
       <r>  -28.0303    1.0000 </r>
       <r>  -27.9860    1.0000 </r>
       <r>  -27.9007    1.0000 </r>
       <r>    1.1466    1.0000 </r>
       <r>    2.9963    1.0000 </r>
       <r>    4.1658    1.0000 </r>
       <r>    4.2040    1.0000 </r>
       <r>    4.2326    1.0000 </r>
       <r>    4.4307    1.0000 </r>
       <r>    8.8704    0.0000 </r>
       <r>    9.2218    0.0000 </r>
       <r>    9.6859    0.0000 </r>
       <r>   10.3373    0.0000 </r>
       <r>   11.1500    0.0000 </r>
       <r>   14.8712    0.0000 </r>
      </set>
      <set comment="kpoint 42">
       <r>  -28.7407    1.0000 </r>
       <r>  -28.6880    1.0000 </r>
       <r>  -28.3807    1.0000 </r>
       <r>  -28.1308    1.0000 </r>
       <r>  -27.9375    1.0000 </r>
       <r>  -27.9026    1.0000 </r>
       <r>    1.6830    1.0000 </r>
       <r>    2.5056    1.0000 </r>
       <r>    4.0457    1.0000 </r>
       <r>    4.0619    1.0000 </r>
       <r>    4.6247    1.0000 </r>
       <r>    4.8686    1.0000 </r>
       <r>    8.7580    0.0000 </r>
       <r>    9.1137    0.0000 </r>
       <r>   10.0244    0.0000 </r>
       <r>   10.2391    0.0000 </r>
       <r>   12.2364    0.0000 </r>
       <r>   14.5920    0.0000 </r>
      </set>
      <set comment="kpoint 43">
       <r>  -28.7385    1.0000 </r>
       <r>  -28.7385    1.0000 </r>
       <r>  -28.2547    1.0000 </r>
       <r>  -28.2547    1.0000 </r>
       <r>  -27.9113    1.0000 </r>
       <r>  -27.9113    1.0000 </r>
       <r>    2.0858    1.0000 </r>
       <r>    2.0858    1.0000 </r>
       <r>    4.0119    1.0000 </r>
       <r>    4.0119    1.0000 </r>
       <r>    4.9595    1.0000 </r>
       <r>    4.9595    1.0000 </r>
       <r>    8.9125    0.0000 </r>
       <r>    8.9125    0.0000 </r>
       <r>   10.1286    0.0000 </r>
       <r>   10.1286    0.0000 </r>
       <r>   13.3632    0.0000 </r>
       <r>   13.3632    0.0000 </r>
      </set>
      <set comment="kpoint 44">
       <r>  -28.7784    1.0000 </r>
       <r>  -28.7543    1.0000 </r>
       <r>  -28.3204    1.0000 </r>
       <r>  -28.1728    1.0000 </r>
       <r>  -27.9163    1.0000 </r>
       <r>  -27.9108    1.0000 </r>
       <r>    1.8564    1.0000 </r>
       <r>    2.1752    1.0000 </r>
       <r>    3.8713    1.0000 </r>
       <r>    3.9935    1.0000 </r>
       <r>    5.1206    1.0054 </r>
       <r>    5.3692    0.2081 </r>
       <r>    9.0293    0.0000 </r>
       <r>    9.4745    0.0000 </r>
       <r>   10.0680    0.0000 </r>
       <r>   10.3823    0.0000 </r>
       <r>   13.2583    0.0000 </r>
       <r>   14.6678    0.0000 </r>
      </set>
      <set comment="kpoint 45">
       <r>  -28.7872    1.0000 </r>
       <r>  -28.7872    1.0000 </r>
       <r>  -28.2413    1.0000 </r>
       <r>  -28.2413    1.0000 </r>
       <r>  -27.9118    1.0000 </r>
       <r>  -27.9118    1.0000 </r>
       <r>    1.9675    1.0000 </r>
       <r>    1.9675    1.0000 </r>
       <r>    3.8489    1.0000 </r>
       <r>    3.8489    1.0000 </r>
       <r>    5.5670   -0.0022 </r>
       <r>    5.5670   -0.0022 </r>
       <r>    9.3597    0.0000 </r>
       <r>    9.3597    0.0000 </r>
       <r>   10.2221    0.0000 </r>
       <r>   10.2221    0.0000 </r>
       <r>   14.0716    0.0000 </r>
       <r>   14.0716    0.0000 </r>
      </set>
      <set comment="kpoint 46">
       <r>  -28.8068    1.0000 </r>
       <r>  -28.8068    1.0000 </r>
       <r>  -28.2324    1.0000 </r>
       <r>  -28.2324    1.0000 </r>
       <r>  -27.9147    1.0000 </r>
       <r>  -27.9147    1.0000 </r>
       <r>    1.9064    1.0000 </r>
       <r>    1.9064    1.0000 </r>
       <r>    3.7505    1.0000 </r>
       <r>    3.7505    1.0000 </r>
       <r>    5.9571   -0.0000 </r>
       <r>    5.9571   -0.0000 </r>
       <r>    9.5117    0.0000 </r>
       <r>    9.5117    0.0000 </r>
       <r>   10.2234    0.0000 </r>
       <r>   10.2234    0.0000 </r>
       <r>   14.2977    0.0000 </r>
       <r>   14.2977    0.0000 </r>
      </set>
      <set comment="kpoint 47">
       <r>  -28.6502    1.0000 </r>
       <r>  -28.5931    1.0000 </r>
       <r>  -28.5931    1.0000 </r>
       <r>  -28.0096    1.0000 </r>
       <r>  -28.0096    1.0000 </r>
       <r>  -27.9492    1.0000 </r>
       <r>    1.8959    1.0000 </r>
       <r>    3.1587    1.0000 </r>
       <r>    4.0491    1.0000 </r>
       <r>    4.0491    1.0000 </r>
       <r>    4.1408    1.0000 </r>
       <r>    4.1408    1.0000 </r>
       <r>    9.6553    0.0000 </r>
       <r>    9.6553    0.0000 </r>
       <r>    9.7063    0.0000 </r>
       <r>    9.7063    0.0000 </r>
       <r>   12.3420    0.0000 </r>
       <r>   14.2018    0.0000 </r>
      </set>
      <set comment="kpoint 48">
       <r>  -28.6920    1.0000 </r>
       <r>  -28.6701    1.0000 </r>
       <r>  -28.4542    1.0000 </r>
       <r>  -28.1473    1.0000 </r>
       <r>  -27.9808    1.0000 </r>
       <r>  -27.9402    1.0000 </r>
       <r>    2.4195    1.0000 </r>
       <r>    2.8122    1.0000 </r>
       <r>    3.9491    1.0000 </r>
       <r>    4.0417    1.0000 </r>
       <r>    4.1774    1.0000 </r>
       <r>    4.6826    1.0000 </r>
       <r>    9.4316    0.0000 </r>
       <r>    9.5423    0.0000 </r>
       <r>   10.0103    0.0000 </r>
       <r>   10.0425    0.0000 </r>
       <r>   13.4528    0.0000 </r>
       <r>   14.3758    0.0000 </r>
      </set>
      <set comment="kpoint 49">
       <r>  -28.7030    1.0000 </r>
       <r>  -28.7030    1.0000 </r>
       <r>  -28.3006    1.0000 </r>
       <r>  -28.3006    1.0000 </r>
       <r>  -27.9539    1.0000 </r>
       <r>  -27.9539    1.0000 </r>
       <r>    2.5999    1.0000 </r>
       <r>    2.5999    1.0000 </r>
       <r>    3.9568    1.0000 </r>
       <r>    3.9568    1.0000 </r>
       <r>    4.6564    1.0000 </r>
       <r>    4.6564    1.0000 </r>
       <r>    9.4234    0.0000 </r>
       <r>    9.4234    0.0000 </r>
       <r>   10.1189    0.0000 </r>
       <r>   10.1189    0.0000 </r>
       <r>   14.5032    0.0000 </r>
       <r>   14.5032    0.0000 </r>
      </set>
      <set comment="kpoint 50">
       <r>  -28.6967    1.0000 </r>
       <r>  -28.6600    1.0000 </r>
       <r>  -28.4199    1.0000 </r>
       <r>  -28.1940    1.0000 </r>
       <r>  -28.0293    1.0000 </r>
       <r>  -27.9682    1.0000 </r>
       <r>    2.7834    1.0000 </r>
       <r>    2.8048    1.0000 </r>
       <r>    3.8044    1.0000 </r>
       <r>    4.0379    1.0000 </r>
       <r>    4.4318    1.0000 </r>
       <r>    4.8943    1.0000 </r>
       <r>    9.6582    0.0000 </r>
       <r>    9.8177    0.0000 </r>
       <r>   10.1252    0.0000 </r>
       <r>   10.1636    0.0000 </r>
       <r>   13.9091    0.0000 </r>
       <r>   14.5125    0.0000 </r>
      </set>
      <set comment="kpoint 51">
       <r>  -28.6869    1.0000 </r>
       <r>  -28.6869    1.0000 </r>
       <r>  -28.3049    1.0000 </r>
       <r>  -28.3049    1.0000 </r>
       <r>  -28.0081    1.0000 </r>
       <r>  -28.0081    1.0000 </r>
       <r>    2.7877    1.0000 </r>
       <r>    2.7877    1.0000 </r>
       <r>    3.8499    1.0000 </r>
       <r>    3.8499    1.0000 </r>
       <r>    4.9335    1.0000 </r>
       <r>    4.9335    1.0000 </r>
       <r>    9.7799    0.0000 </r>
       <r>    9.7799    0.0000 </r>
       <r>   10.2159    0.0000 </r>
       <r>   10.2159    0.0000 </r>
       <r>   14.2965    0.0000 </r>
       <r>   14.2965    0.0000 </r>
      </set>
      <set comment="kpoint 52">
       <r>  -28.6854    1.0000 </r>
       <r>  -28.6854    1.0000 </r>
       <r>  -28.2938    1.0000 </r>
       <r>  -28.2938    1.0000 </r>
       <r>  -28.0369    1.0000 </r>
       <r>  -28.0369    1.0000 </r>
       <r>    2.8181    1.0000 </r>
       <r>    2.8181    1.0000 </r>
       <r>    3.7327    1.0000 </r>
       <r>    3.7327    1.0000 </r>
       <r>    5.2386    1.0168 </r>
       <r>    5.2386    1.0168 </r>
       <r>    9.8755    0.0000 </r>
       <r>    9.8755    0.0000 </r>
       <r>   10.2744    0.0000 </r>
       <r>   10.2744    0.0000 </r>
       <r>   13.8932    0.0000 </r>
       <r>   13.8932    0.0000 </r>
      </set>
      <set comment="kpoint 53">
       <r>  -28.6388    1.0000 </r>
       <r>  -28.5105    1.0000 </r>
       <r>  -28.5105    1.0000 </r>
       <r>  -28.1789    1.0000 </r>
       <r>  -28.1789    1.0000 </r>
       <r>  -28.0426    1.0000 </r>
       <r>    3.1238    1.0000 </r>
       <r>    3.8007    1.0000 </r>
       <r>    3.8535    1.0000 </r>
       <r>    3.8535    1.0000 </r>
       <r>    4.4249    1.0000 </r>
       <r>    4.4249    1.0000 </r>
       <r>   10.1096    0.0000 </r>
       <r>   10.1096    0.0000 </r>
       <r>   10.1446    0.0000 </r>
       <r>   10.1446    0.0000 </r>
       <r>   13.1334    0.0000 </r>
       <r>   14.0666    0.0000 </r>
      </set>
      <set comment="kpoint 54">
       <r>  -28.5813    1.0000 </r>
       <r>  -28.5813    1.0000 </r>
       <r>  -28.3447    1.0000 </r>
       <r>  -28.3447    1.0000 </r>
       <r>  -28.1215    1.0000 </r>
       <r>  -28.1215    1.0000 </r>
       <r>    3.4069    1.0000 </r>
       <r>    3.4069    1.0000 </r>
       <r>    4.0612    1.0000 </r>
       <r>    4.0612    1.0000 </r>
       <r>    4.4781    1.0000 </r>
       <r>    4.4781    1.0000 </r>
       <r>   10.1272    0.0000 </r>
       <r>   10.1272    0.0000 </r>
       <r>   10.2549    0.0000 </r>
       <r>   10.2549    0.0000 </r>
       <r>   13.1906    0.0000 </r>
       <r>   13.1906    0.0000 </r>
      </set>
      <set comment="kpoint 55">
       <r>  -28.5319    1.0000 </r>
       <r>  -28.5319    1.0000 </r>
       <r>  -28.3429    1.0000 </r>
       <r>  -28.3429    1.0000 </r>
       <r>  -28.1909    1.0000 </r>
       <r>  -28.1909    1.0000 </r>
       <r>    3.7201    1.0000 </r>
       <r>    3.7201    1.0000 </r>
       <r>    3.8424    1.0000 </r>
       <r>    3.8424    1.0000 </r>
       <r>    4.6026    1.0000 </r>
       <r>    4.6026    1.0000 </r>
       <r>   10.2073    0.0000 </r>
       <r>   10.2073    0.0000 </r>
       <r>   10.3164    0.0000 </r>
       <r>   10.3164    0.0000 </r>
       <r>   12.7462    0.0000 </r>
       <r>   12.7462    0.0000 </r>
      </set>
      <set comment="kpoint 56">
       <r>  -28.3615    1.0000 </r>
       <r>  -28.3615    1.0000 </r>
       <r>  -28.3615    1.0000 </r>
       <r>  -28.3615    1.0000 </r>
       <r>  -28.3615    1.0000 </r>
       <r>  -28.3615    1.0000 </r>
       <r>    4.1283    1.0000 </r>
       <r>    4.1283    1.0000 </r>
       <r>    4.1283    1.0000 </r>
       <r>    4.1283    1.0000 </r>
       <r>    4.1283    1.0000 </r>
       <r>    4.1283    1.0000 </r>
       <r>   10.3325    0.0000 </r>
       <r>   10.3325    0.0000 </r>
       <r>   10.3325    0.0000 </r>
       <r>   10.3325    0.0000 </r>
       <r>   12.2803    0.0000 </r>
       <r>   12.2803    0.0000 </r>
      </set>
     </set>
    </set>
   </array>
  </eigenvalues>
  <separator name="orbital magnetization" >
   <v name="MAGDIPOLOUT">      0.00000000      0.00000000      0.00000000</v>
  </separator>
  <dos>
   <i name="efermi">      5.33197187 </i>
   <total>
    <array>
     <dimension dim="1">gridpoints</dimension>
     <dimension dim="2">spin</dimension>
     <field>energy</field>
     <field>total</field>
     <field>integrated</field>
     <set>
      <set comment="spin 1">
       <r>   -31.1144     0.0000     0.0000 </r>
       <r>   -30.9529     0.0000     0.0000 </r>
       <r>   -30.7913     0.0000     0.0000 </r>
       <r>   -30.6298     0.0000     0.0000 </r>
       <r>   -30.4682     0.0000     0.0000 </r>
       <r>   -30.3067     0.0000     0.0000 </r>
       <r>   -30.1451     0.0000     0.0000 </r>
       <r>   -29.9836     0.0000     0.0000 </r>
       <r>   -29.8220    -0.0000    -0.0000 </r>
       <r>   -29.6605    -0.0000    -0.0000 </r>
       <r>   -29.4989    -0.0000    -0.0000 </r>
       <r>   -29.3374    -0.0000    -0.0000 </r>
       <r>   -29.1758    -0.0001    -0.0000 </r>
       <r>   -29.0143    -0.0585    -0.0095 </r>
       <r>   -28.8527     1.0912     0.1668 </r>
       <r>   -28.6912     9.6517     1.7260 </r>
       <r>   -28.5296    10.0199     3.3447 </r>
       <r>   -28.3681     7.5505     4.5645 </r>
       <r>   -28.2065    10.8921     6.3241 </r>
       <r>   -28.0450    11.9332     8.2519 </r>
       <r>   -27.8834    15.3694    10.7348 </r>
       <r>   -27.7219     8.1338    12.0488 </r>
       <r>   -27.5603    -0.2993    12.0005 </r>
       <r>   -27.3988    -0.0029    12.0000 </r>
       <r>   -27.2372    -0.0000    12.0000 </r>
       <r>   -27.0757    -0.0000    12.0000 </r>
       <r>   -26.9141     0.0000    12.0000 </r>
       <r>   -26.7526     0.0000    12.0000 </r>
       <r>   -26.5910     0.0000    12.0000 </r>
       <r>   -26.4295     0.0000    12.0000 </r>
       <r>   -26.2679     0.0000    12.0000 </r>
       <r>   -26.1064     0.0000    12.0000 </r>
       <r>   -25.9448     0.0000    12.0000 </r>
       <r>   -25.7833     0.0000    12.0000 </r>
       <r>   -25.6217     0.0000    12.0000 </r>
       <r>   -25.4602     0.0000    12.0000 </r>
       <r>   -25.2986     0.0000    12.0000 </r>
       <r>   -25.1371     0.0000    12.0000 </r>
       <r>   -24.9756     0.0000    12.0000 </r>
       <r>   -24.8140     0.0000    12.0000 </r>
       <r>   -24.6525     0.0000    12.0000 </r>
       <r>   -24.4909     0.0000    12.0000 </r>
       <r>   -24.3294     0.0000    12.0000 </r>
       <r>   -24.1678     0.0000    12.0000 </r>
       <r>   -24.0063     0.0000    12.0000 </r>
       <r>   -23.8447     0.0000    12.0000 </r>
       <r>   -23.6832     0.0000    12.0000 </r>
       <r>   -23.5216     0.0000    12.0000 </r>
       <r>   -23.3601     0.0000    12.0000 </r>
       <r>   -23.1985     0.0000    12.0000 </r>
       <r>   -23.0370     0.0000    12.0000 </r>
       <r>   -22.8754     0.0000    12.0000 </r>
       <r>   -22.7139     0.0000    12.0000 </r>
       <r>   -22.5523     0.0000    12.0000 </r>
       <r>   -22.3908     0.0000    12.0000 </r>
       <r>   -22.2292     0.0000    12.0000 </r>
       <r>   -22.0677     0.0000    12.0000 </r>
       <r>   -21.9061     0.0000    12.0000 </r>
       <r>   -21.7446     0.0000    12.0000 </r>
       <r>   -21.5830     0.0000    12.0000 </r>
       <r>   -21.4215     0.0000    12.0000 </r>
       <r>   -21.2599     0.0000    12.0000 </r>
       <r>   -21.0984     0.0000    12.0000 </r>
       <r>   -20.9368     0.0000    12.0000 </r>
       <r>   -20.7753     0.0000    12.0000 </r>
       <r>   -20.6137     0.0000    12.0000 </r>
       <r>   -20.4522     0.0000    12.0000 </r>
       <r>   -20.2906     0.0000    12.0000 </r>
       <r>   -20.1291     0.0000    12.0000 </r>
       <r>   -19.9675     0.0000    12.0000 </r>
       <r>   -19.8060     0.0000    12.0000 </r>
       <r>   -19.6444     0.0000    12.0000 </r>
       <r>   -19.4829     0.0000    12.0000 </r>
       <r>   -19.3213     0.0000    12.0000 </r>
       <r>   -19.1598     0.0000    12.0000 </r>
       <r>   -18.9982     0.0000    12.0000 </r>
       <r>   -18.8367     0.0000    12.0000 </r>
       <r>   -18.6752     0.0000    12.0000 </r>
       <r>   -18.5136     0.0000    12.0000 </r>
       <r>   -18.3521     0.0000    12.0000 </r>
       <r>   -18.1905     0.0000    12.0000 </r>
       <r>   -18.0290     0.0000    12.0000 </r>
       <r>   -17.8674     0.0000    12.0000 </r>
       <r>   -17.7059     0.0000    12.0000 </r>
       <r>   -17.5443     0.0000    12.0000 </r>
       <r>   -17.3828     0.0000    12.0000 </r>
       <r>   -17.2212     0.0000    12.0000 </r>
       <r>   -17.0597     0.0000    12.0000 </r>
       <r>   -16.8981     0.0000    12.0000 </r>
       <r>   -16.7366     0.0000    12.0000 </r>
       <r>   -16.5750     0.0000    12.0000 </r>
       <r>   -16.4135     0.0000    12.0000 </r>
       <r>   -16.2519     0.0000    12.0000 </r>
       <r>   -16.0904     0.0000    12.0000 </r>
       <r>   -15.9288     0.0000    12.0000 </r>
       <r>   -15.7673     0.0000    12.0000 </r>
       <r>   -15.6057     0.0000    12.0000 </r>
       <r>   -15.4442     0.0000    12.0000 </r>
       <r>   -15.2826     0.0000    12.0000 </r>
       <r>   -15.1211     0.0000    12.0000 </r>
       <r>   -14.9595     0.0000    12.0000 </r>
       <r>   -14.7980     0.0000    12.0000 </r>
       <r>   -14.6364     0.0000    12.0000 </r>
       <r>   -14.4749     0.0000    12.0000 </r>
       <r>   -14.3133     0.0000    12.0000 </r>
       <r>   -14.1518     0.0000    12.0000 </r>
       <r>   -13.9902     0.0000    12.0000 </r>
       <r>   -13.8287     0.0000    12.0000 </r>
       <r>   -13.6671     0.0000    12.0000 </r>
       <r>   -13.5056     0.0000    12.0000 </r>
       <r>   -13.3440     0.0000    12.0000 </r>
       <r>   -13.1825     0.0000    12.0000 </r>
       <r>   -13.0209     0.0000    12.0000 </r>
       <r>   -12.8594     0.0000    12.0000 </r>
       <r>   -12.6978     0.0000    12.0000 </r>
       <r>   -12.5363     0.0000    12.0000 </r>
       <r>   -12.3748     0.0000    12.0000 </r>
       <r>   -12.2132     0.0000    12.0000 </r>
       <r>   -12.0517     0.0000    12.0000 </r>
       <r>   -11.8901     0.0000    12.0000 </r>
       <r>   -11.7286     0.0000    12.0000 </r>
       <r>   -11.5670     0.0000    12.0000 </r>
       <r>   -11.4055     0.0000    12.0000 </r>
       <r>   -11.2439     0.0000    12.0000 </r>
       <r>   -11.0824     0.0000    12.0000 </r>
       <r>   -10.9208     0.0000    12.0000 </r>
       <r>   -10.7593     0.0000    12.0000 </r>
       <r>   -10.5977     0.0000    12.0000 </r>
       <r>   -10.4362     0.0000    12.0000 </r>
       <r>   -10.2746     0.0000    12.0000 </r>
       <r>   -10.1131     0.0000    12.0000 </r>
       <r>    -9.9515     0.0000    12.0000 </r>
       <r>    -9.7900     0.0000    12.0000 </r>
       <r>    -9.6284     0.0000    12.0000 </r>
       <r>    -9.4669     0.0000    12.0000 </r>
       <r>    -9.3053     0.0000    12.0000 </r>
       <r>    -9.1438     0.0000    12.0000 </r>
       <r>    -8.9822     0.0000    12.0000 </r>
       <r>    -8.8207     0.0000    12.0000 </r>
       <r>    -8.6591     0.0000    12.0000 </r>
       <r>    -8.4976     0.0000    12.0000 </r>
       <r>    -8.3360     0.0000    12.0000 </r>
       <r>    -8.1745     0.0000    12.0000 </r>
       <r>    -8.0129     0.0000    12.0000 </r>
       <r>    -7.8514     0.0000    12.0000 </r>
       <r>    -7.6898     0.0000    12.0000 </r>
       <r>    -7.5283     0.0000    12.0000 </r>
       <r>    -7.3667     0.0000    12.0000 </r>
       <r>    -7.2052     0.0000    12.0000 </r>
       <r>    -7.0436     0.0000    12.0000 </r>
       <r>    -6.8821     0.0000    12.0000 </r>
       <r>    -6.7205     0.0000    12.0000 </r>
       <r>    -6.5590     0.0000    12.0000 </r>
       <r>    -6.3974     0.0000    12.0000 </r>
       <r>    -6.2359     0.0000    12.0000 </r>
       <r>    -6.0743     0.0000    12.0000 </r>
       <r>    -5.9128     0.0000    12.0000 </r>
       <r>    -5.7513     0.0000    12.0000 </r>
       <r>    -5.5897     0.0000    12.0000 </r>
       <r>    -5.4282     0.0000    12.0000 </r>
       <r>    -5.2666     0.0000    12.0000 </r>
       <r>    -5.1051     0.0000    12.0000 </r>
       <r>    -4.9435     0.0000    12.0000 </r>
       <r>    -4.7820     0.0000    12.0000 </r>
       <r>    -4.6204     0.0000    12.0000 </r>
       <r>    -4.4589     0.0000    12.0000 </r>
       <r>    -4.2973     0.0000    12.0000 </r>
       <r>    -4.1358     0.0000    12.0000 </r>
       <r>    -3.9742     0.0000    12.0000 </r>
       <r>    -3.8127     0.0000    12.0000 </r>
       <r>    -3.6511     0.0000    12.0000 </r>
       <r>    -3.4896     0.0000    12.0000 </r>
       <r>    -3.3280    -0.0000    12.0000 </r>
       <r>    -3.1665    -0.0000    12.0000 </r>
       <r>    -3.0049    -0.0000    12.0000 </r>
       <r>    -2.8434    -0.0000    12.0000 </r>
       <r>    -2.6818    -0.0002    12.0000 </r>
       <r>    -2.5203     0.0043    12.0007 </r>
       <r>    -2.3587     0.0101    12.0023 </r>
       <r>    -2.1972     0.0674    12.0132 </r>
       <r>    -2.0356     0.1185    12.0323 </r>
       <r>    -1.8741     0.0773    12.0448 </r>
       <r>    -1.7125     0.0646    12.0552 </r>
       <r>    -1.5510     0.0655    12.0658 </r>
       <r>    -1.3894     0.2786    12.1108 </r>
       <r>    -1.2279     0.2711    12.1546 </r>
       <r>    -1.0663     0.0426    12.1615 </r>
       <r>    -0.9048     0.0998    12.1776 </r>
       <r>    -0.7432     0.2019    12.2103 </r>
       <r>    -0.5817     0.2767    12.2550 </r>
       <r>    -0.4201     0.3108    12.3052 </r>
       <r>    -0.2586     0.2471    12.3451 </r>
       <r>    -0.0970     0.3169    12.3963 </r>
       <r>     0.0645     0.4978    12.4767 </r>
       <r>     0.2261     0.1585    12.5023 </r>
       <r>     0.3876     0.0722    12.5140 </r>
       <r>     0.5491     0.5214    12.5982 </r>
       <r>     0.7107     0.8073    12.7286 </r>
       <r>     0.8722     0.5178    12.8123 </r>
       <r>     1.0338     0.8730    12.9533 </r>
       <r>     1.1953     1.2491    13.1551 </r>
       <r>     1.3569     1.0762    13.3290 </r>
       <r>     1.5184     0.7196    13.4452 </r>
       <r>     1.6800     1.6595    13.7133 </r>
       <r>     1.8415     1.7869    14.0020 </r>
       <r>     2.0031     1.5703    14.2557 </r>
       <r>     2.1646     1.8320    14.5516 </r>
       <r>     2.3262     0.9481    14.7048 </r>
       <r>     2.4877     2.4599    15.1022 </r>
       <r>     2.6493     2.1506    15.4496 </r>
       <r>     2.8108     2.3342    15.8267 </r>
       <r>     2.9724     1.8296    16.1223 </r>
       <r>     3.1339     0.4273    16.1913 </r>
       <r>     3.2955     0.2198    16.2268 </r>
       <r>     3.4570     1.3799    16.4497 </r>
       <r>     3.6186     1.0146    16.6137 </r>
       <r>     3.7801     0.8689    16.7540 </r>
       <r>     3.9417     3.5969    17.3351 </r>
       <r>     4.1032     4.8328    18.1158 </r>
       <r>     4.2648     3.5893    18.6957 </r>
       <r>     4.4263     2.7028    19.1323 </r>
       <r>     4.5879     2.9910    19.6155 </r>
       <r>     4.7494     2.1408    19.9614 </r>
       <r>     4.9110     2.8128    20.4158 </r>
       <r>     5.0725     5.0623    21.2336 </r>
       <r>     5.2341     2.9274    21.7065 </r>
       <r>     5.3956     2.6426    22.1334 </r>
       <r>     5.5572     2.2570    22.4980 </r>
       <r>     5.7187     2.3817    22.8828 </r>
       <r>     5.8803     1.2861    23.0905 </r>
       <r>     6.0418     1.1072    23.2694 </r>
       <r>     6.2034     1.3885    23.4937 </r>
       <r>     6.3649     0.4588    23.5678 </r>
       <r>     6.5265     0.7163    23.6835 </r>
       <r>     6.6880     0.6954    23.7959 </r>
       <r>     6.8495     0.2834    23.8417 </r>
       <r>     7.0111     0.8735    23.9828 </r>
       <r>     7.1726     0.8948    24.1273 </r>
       <r>     7.3342     1.0658    24.2995 </r>
       <r>     7.4957     0.8961    24.4443 </r>
       <r>     7.6573     1.4100    24.6720 </r>
       <r>     7.8188     2.2694    25.0387 </r>
       <r>     7.9804     1.0878    25.2144 </r>
       <r>     8.1419     1.5653    25.4673 </r>
       <r>     8.3035     1.3821    25.6906 </r>
       <r>     8.4650     2.2653    26.0565 </r>
       <r>     8.6266     1.7851    26.3449 </r>
       <r>     8.7881     1.5759    26.5995 </r>
       <r>     8.9497     2.9362    27.0738 </r>
       <r>     9.1112     2.9716    27.5539 </r>
       <r>     9.2728     1.6702    27.8237 </r>
       <r>     9.4343     1.9748    28.1427 </r>
       <r>     9.5959     2.2480    28.5059 </r>
       <r>     9.7574     2.7255    28.9462 </r>
       <r>     9.9190     2.2097    29.3032 </r>
       <r>    10.0805     5.3625    30.1695 </r>
       <r>    10.2421     5.8897    31.1209 </r>
       <r>    10.4036     5.5191    32.0125 </r>
       <r>    10.5652     1.6114    32.2729 </r>
       <r>    10.7267     0.3714    32.3329 </r>
       <r>    10.8883     0.8087    32.4635 </r>
       <r>    11.0498     1.3196    32.6767 </r>
       <r>    11.2114     2.1451    33.0232 </r>
       <r>    11.3729     1.8566    33.3231 </r>
       <r>    11.5345     0.2393    33.3618 </r>
       <r>    11.6960     0.4600    33.4361 </r>
       <r>    11.8576     0.5607    33.5267 </r>
       <r>    12.0191     0.0906    33.5413 </r>
       <r>    12.1807     0.5789    33.6348 </r>
       <r>    12.3422     1.7846    33.9231 </r>
       <r>    12.5038     1.4242    34.1532 </r>
       <r>    12.6653     0.9707    34.3100 </r>
       <r>    12.8269     0.3188    34.3615 </r>
       <r>    12.9884     0.2267    34.3982 </r>
       <r>    13.1499     0.7278    34.5157 </r>
       <r>    13.3115     0.9626    34.6713 </r>
       <r>    13.4730     1.3655    34.8919 </r>
       <r>    13.6346     0.3739    34.9523 </r>
       <r>    13.7961     0.9967    35.1133 </r>
       <r>    13.9577     0.7190    35.2294 </r>
       <r>    14.1192     0.8221    35.3622 </r>
       <r>    14.2808     0.6063    35.4602 </r>
       <r>    14.4423     0.7898    35.5878 </r>
       <r>    14.6039     0.9573    35.7424 </r>
       <r>    14.7654     0.5224    35.8268 </r>
       <r>    14.9270     0.8016    35.9563 </r>
       <r>    15.0885     0.1875    35.9866 </r>
       <r>    15.2501     0.0857    36.0004 </r>
       <r>    15.4116    -0.0027    36.0000 </r>
       <r>    15.5732    -0.0001    36.0000 </r>
       <r>    15.7347    -0.0000    36.0000 </r>
       <r>    15.8963    -0.0000    36.0000 </r>
       <r>    16.0578     0.0000    36.0000 </r>
       <r>    16.2194     0.0000    36.0000 </r>
       <r>    16.3809     0.0000    36.0000 </r>
       <r>    16.5425     0.0000    36.0000 </r>
       <r>    16.7040     0.0000    36.0000 </r>
       <r>    16.8656     0.0000    36.0000 </r>
       <r>    17.0271     0.0000    36.0000 </r>
       <r>    17.1887     0.0000    36.0000 </r>
       <r>    17.3502     0.0000    36.0000 </r>
      </set>
     </set>
    </array>
   </total>
  </dos>
 </calculation>
 <structure name="finalpos" >
  <crystal>
   <varray name="basis" >
    <v>       3.32136372       0.00000000       0.00000000 </v>
    <v>       0.00000000       3.32136372       0.00000000 </v>
    <v>       0.00000000       0.00000000       3.32136372 </v>
   </varray>
   <i name="volume">     36.63948078 </i>
   <varray name="rec_basis" >
    <v>       0.30108115      -0.00000000       0.00000000 </v>
    <v>       0.00000000       0.30108115       0.00000000 </v>
    <v>      -0.00000000      -0.00000000       0.30108115 </v>
   </varray>
  </crystal>
  <varray name="positions" >
   <v>       0.00000000       0.00000000       0.00000000 </v>
   <v>       0.50000000       0.50000000       0.50000000 </v>
  </varray>
 </structure>
</modeling>
