LAMMPS (29 Aug 2024)
Total wall time: 0:00:00
