   2   2   0   0
  0.2438357E+02  0.3653500E-09  0.3653500E-09  0.3653500E-09  0.5000000E-15
  1.000000000000000E-004
  CAR 
 unknown system                          
     12.24271652    -33.43394440  301      3.27120338      1.00000000
    -33.434  0.0000E+00  0.0000E+00
    -33.282  0.0000E+00  0.0000E+00
    -33.129  0.0000E+00  0.0000E+00
    -32.977  0.0000E+00  0.0000E+00
    -32.825  0.0000E+00  0.0000E+00
    -32.673  0.0000E+00  0.0000E+00
    -32.520  0.0000E+00  0.0000E+00
    -32.368  0.0000E+00  0.0000E+00
    -32.216 -0.8887E-32 -0.1353E-32
    -32.064 -0.1954E-21 -0.2975E-22
    -31.911 -0.4189E-13 -0.6377E-14
    -31.759 -0.9281E-07 -0.1413E-07
    -31.607 -0.2129E-02 -0.3241E-03
    -31.455 -0.4123E+00 -0.6309E-01
    -31.302  0.7942E+01  0.1146E+01
    -31.150  0.2568E+02  0.5056E+01
    -30.998  0.3307E+02  0.1009E+02
    -30.846  0.1321E+02  0.1210E+02
    -30.693 -0.6724E+00  0.1200E+02
    -30.541 -0.4005E-02  0.1200E+02
    -30.389 -0.1500E-06  0.1200E+02
    -30.237 -0.5183E-13  0.1200E+02
    -30.084  0.0000E+00  0.1200E+02
    -29.932  0.0000E+00  0.1200E+02
    -29.780  0.0000E+00  0.1200E+02
    -29.628  0.0000E+00  0.1200E+02
    -29.475  0.0000E+00  0.1200E+02
    -29.323  0.0000E+00  0.1200E+02
    -29.171  0.0000E+00  0.1200E+02
    -29.019  0.0000E+00  0.1200E+02
    -28.866  0.0000E+00  0.1200E+02
    -28.714  0.0000E+00  0.1200E+02
    -28.562  0.0000E+00  0.1200E+02
    -28.410  0.0000E+00  0.1200E+02
    -28.257  0.0000E+00  0.1200E+02
    -28.105  0.0000E+00  0.1200E+02
    -27.953  0.0000E+00  0.1200E+02
    -27.800  0.0000E+00  0.1200E+02
    -27.648  0.0000E+00  0.1200E+02
    -27.496  0.0000E+00  0.1200E+02
    -27.344  0.0000E+00  0.1200E+02
    -27.191  0.0000E+00  0.1200E+02
    -27.039  0.0000E+00  0.1200E+02
    -26.887  0.0000E+00  0.1200E+02
    -26.735  0.0000E+00  0.1200E+02
    -26.582  0.0000E+00  0.1200E+02
    -26.430  0.0000E+00  0.1200E+02
    -26.278  0.0000E+00  0.1200E+02
    -26.126  0.0000E+00  0.1200E+02
    -25.973  0.0000E+00  0.1200E+02
    -25.821  0.0000E+00  0.1200E+02
    -25.669  0.0000E+00  0.1200E+02
    -25.517  0.0000E+00  0.1200E+02
    -25.364  0.0000E+00  0.1200E+02
    -25.212  0.0000E+00  0.1200E+02
    -25.060  0.0000E+00  0.1200E+02
    -24.908  0.0000E+00  0.1200E+02
    -24.755  0.0000E+00  0.1200E+02
    -24.603  0.0000E+00  0.1200E+02
    -24.451  0.0000E+00  0.1200E+02
    -24.299  0.0000E+00  0.1200E+02
    -24.146  0.0000E+00  0.1200E+02
    -23.994  0.0000E+00  0.1200E+02
    -23.842  0.0000E+00  0.1200E+02
    -23.690  0.0000E+00  0.1200E+02
    -23.537  0.0000E+00  0.1200E+02
    -23.385  0.0000E+00  0.1200E+02
    -23.233  0.0000E+00  0.1200E+02
    -23.081  0.0000E+00  0.1200E+02
    -22.928  0.0000E+00  0.1200E+02
    -22.776  0.0000E+00  0.1200E+02
    -22.624  0.0000E+00  0.1200E+02
    -22.472  0.0000E+00  0.1200E+02
    -22.319  0.0000E+00  0.1200E+02
    -22.167  0.0000E+00  0.1200E+02
    -22.015  0.0000E+00  0.1200E+02
    -21.863  0.0000E+00  0.1200E+02
    -21.710  0.0000E+00  0.1200E+02
    -21.558  0.0000E+00  0.1200E+02
    -21.406  0.0000E+00  0.1200E+02
    -21.254  0.0000E+00  0.1200E+02
    -21.101  0.0000E+00  0.1200E+02
    -20.949  0.0000E+00  0.1200E+02
    -20.797  0.0000E+00  0.1200E+02
    -20.644  0.0000E+00  0.1200E+02
    -20.492  0.0000E+00  0.1200E+02
    -20.340  0.0000E+00  0.1200E+02
    -20.188  0.0000E+00  0.1200E+02
    -20.035  0.0000E+00  0.1200E+02
    -19.883  0.0000E+00  0.1200E+02
    -19.731  0.0000E+00  0.1200E+02
    -19.579  0.0000E+00  0.1200E+02
    -19.426  0.0000E+00  0.1200E+02
    -19.274  0.0000E+00  0.1200E+02
    -19.122  0.0000E+00  0.1200E+02
    -18.970  0.0000E+00  0.1200E+02
    -18.817  0.0000E+00  0.1200E+02
    -18.665  0.0000E+00  0.1200E+02
    -18.513  0.0000E+00  0.1200E+02
    -18.361  0.0000E+00  0.1200E+02
    -18.208  0.0000E+00  0.1200E+02
    -18.056  0.0000E+00  0.1200E+02
    -17.904  0.0000E+00  0.1200E+02
    -17.752  0.0000E+00  0.1200E+02
    -17.599  0.0000E+00  0.1200E+02
    -17.447  0.0000E+00  0.1200E+02
    -17.295  0.0000E+00  0.1200E+02
    -17.143  0.0000E+00  0.1200E+02
    -16.990  0.0000E+00  0.1200E+02
    -16.838  0.0000E+00  0.1200E+02
    -16.686  0.0000E+00  0.1200E+02
    -16.534  0.0000E+00  0.1200E+02
    -16.381  0.0000E+00  0.1200E+02
    -16.229  0.0000E+00  0.1200E+02
    -16.077  0.0000E+00  0.1200E+02
    -15.925  0.0000E+00  0.1200E+02
    -15.772  0.0000E+00  0.1200E+02
    -15.620  0.0000E+00  0.1200E+02
    -15.468  0.0000E+00  0.1200E+02
    -15.316  0.0000E+00  0.1200E+02
    -15.163  0.0000E+00  0.1200E+02
    -15.011  0.0000E+00  0.1200E+02
    -14.859  0.0000E+00  0.1200E+02
    -14.707  0.0000E+00  0.1200E+02
    -14.554  0.0000E+00  0.1200E+02
    -14.402  0.0000E+00  0.1200E+02
    -14.250  0.0000E+00  0.1200E+02
    -14.097  0.0000E+00  0.1200E+02
    -13.945  0.0000E+00  0.1200E+02
    -13.793  0.0000E+00  0.1200E+02
    -13.641  0.0000E+00  0.1200E+02
    -13.488  0.0000E+00  0.1200E+02
    -13.336  0.0000E+00  0.1200E+02
    -13.184  0.0000E+00  0.1200E+02
    -13.032  0.0000E+00  0.1200E+02
    -12.879  0.0000E+00  0.1200E+02
    -12.727  0.0000E+00  0.1200E+02
    -12.575  0.0000E+00  0.1200E+02
    -12.423  0.0000E+00  0.1200E+02
    -12.270  0.0000E+00  0.1200E+02
    -12.118  0.0000E+00  0.1200E+02
    -11.966  0.0000E+00  0.1200E+02
    -11.814  0.0000E+00  0.1200E+02
    -11.661  0.0000E+00  0.1200E+02
    -11.509  0.0000E+00  0.1200E+02
    -11.357  0.0000E+00  0.1200E+02
    -11.205  0.0000E+00  0.1200E+02
    -11.052  0.0000E+00  0.1200E+02
    -10.900  0.0000E+00  0.1200E+02
    -10.748  0.0000E+00  0.1200E+02
    -10.596  0.0000E+00  0.1200E+02
    -10.443  0.0000E+00  0.1200E+02
    -10.291  0.0000E+00  0.1200E+02
    -10.139  0.0000E+00  0.1200E+02
     -9.987  0.0000E+00  0.1200E+02
     -9.834  0.0000E+00  0.1200E+02
     -9.682  0.0000E+00  0.1200E+02
     -9.530  0.0000E+00  0.1200E+02
     -9.378  0.0000E+00  0.1200E+02
     -9.225  0.0000E+00  0.1200E+02
     -9.073  0.0000E+00  0.1200E+02
     -8.921  0.0000E+00  0.1200E+02
     -8.769  0.0000E+00  0.1200E+02
     -8.616  0.0000E+00  0.1200E+02
     -8.464  0.0000E+00  0.1200E+02
     -8.312  0.0000E+00  0.1200E+02
     -8.160  0.0000E+00  0.1200E+02
     -8.007  0.0000E+00  0.1200E+02
     -7.855  0.0000E+00  0.1200E+02
     -7.703  0.0000E+00  0.1200E+02
     -7.551  0.0000E+00  0.1200E+02
     -7.398  0.0000E+00  0.1200E+02
     -7.246  0.0000E+00  0.1200E+02
     -7.094  0.0000E+00  0.1200E+02
     -6.941  0.0000E+00  0.1200E+02
     -6.789  0.0000E+00  0.1200E+02
     -6.637  0.0000E+00  0.1200E+02
     -6.485  0.0000E+00  0.1200E+02
     -6.332  0.0000E+00  0.1200E+02
     -6.180  0.0000E+00  0.1200E+02
     -6.028  0.0000E+00  0.1200E+02
     -5.876  0.0000E+00  0.1200E+02
     -5.723  0.0000E+00  0.1200E+02
     -5.571  0.0000E+00  0.1200E+02
     -5.419  0.0000E+00  0.1200E+02
     -5.267  0.0000E+00  0.1200E+02
     -5.114  0.0000E+00  0.1200E+02
     -4.962  0.0000E+00  0.1200E+02
     -4.810  0.0000E+00  0.1200E+02
     -4.658  0.0000E+00  0.1200E+02
     -4.505  0.0000E+00  0.1200E+02
     -4.353 -0.1592E-39  0.1200E+02
     -4.201 -0.3687E-28  0.1200E+02
     -4.049 -0.7967E-19  0.1200E+02
     -3.896 -0.1507E-11  0.1200E+02
     -3.744 -0.2478E-06  0.1200E+02
     -3.592 -0.2599E-03  0.1200E+02
     -3.440  0.4833E-02  0.1200E+02
     -3.287  0.1797E-01  0.1200E+02
     -3.135  0.9597E-01  0.1202E+02
     -2.983  0.1834E+00  0.1205E+02
     -2.831  0.1244E+00  0.1206E+02
     -2.678  0.8884E-01  0.1208E+02
     -2.526  0.1362E+00  0.1210E+02
     -2.374  0.4015E+00  0.1216E+02
     -2.222  0.4026E+00  0.1222E+02
     -2.069  0.2173E-02  0.1222E+02
     -1.917  0.1853E+00  0.1225E+02
     -1.765  0.4322E+00  0.1232E+02
     -1.613  0.3906E+00  0.1238E+02
     -1.460  0.4545E+00  0.1244E+02
     -1.308  0.2676E+00  0.1249E+02
     -1.156  0.4609E+00  0.1256E+02
     -1.004  0.8245E+00  0.1268E+02
     -0.851  0.4389E-01  0.1269E+02
     -0.699  0.1387E+00  0.1271E+02
     -0.547  0.1077E+01  0.1287E+02
     -0.394  0.9404E+00  0.1302E+02
     -0.242  0.5667E+00  0.1310E+02
     -0.090  0.1076E+01  0.1327E+02
      0.062  0.1310E+01  0.1347E+02
      0.215  0.1118E+01  0.1364E+02
      0.367  0.7733E+00  0.1375E+02
      0.519  0.1905E+01  0.1404E+02
      0.671  0.2356E+01  0.1440E+02
      0.824  0.8103E+00  0.1453E+02
      0.976  0.1558E+01  0.1476E+02
      1.128  0.1275E+01  0.1496E+02
      1.280  0.2141E+01  0.1528E+02
      1.433  0.2607E+01  0.1568E+02
      1.585  0.2529E+01  0.1607E+02
      1.737  0.6188E+00  0.1616E+02
      1.889  0.7023E+00  0.1627E+02
      2.042  0.1287E+01  0.1646E+02
      2.194  0.1108E+01  0.1663E+02
      2.346  0.4321E+01  0.1729E+02
      2.498  0.5701E+01  0.1816E+02
      2.651  0.5050E+01  0.1893E+02
      2.803  0.5598E+01  0.1978E+02
      2.955  0.3586E+01  0.2032E+02
      3.107  0.4837E+01  0.2106E+02
      3.260  0.5794E+01  0.2194E+02
      3.412  0.2762E+01  0.2236E+02
      3.564  0.2991E+01  0.2282E+02
      3.716  0.2303E+01  0.2317E+02
      3.869  0.1862E+01  0.2345E+02
      4.021  0.1165E+01  0.2363E+02
      4.173  0.3461E+00  0.2368E+02
      4.325  0.4441E+00  0.2375E+02
      4.478  0.5378E+00  0.2383E+02
      4.630  0.1876E+01  0.2412E+02
      4.782  0.1433E+01  0.2434E+02
      4.934  0.1611E+01  0.2458E+02
      5.087  0.9419E+00  0.2473E+02
      5.239  0.2400E+01  0.2509E+02
      5.391  0.3314E+01  0.2560E+02
      5.543  0.2005E+01  0.2590E+02
      5.696  0.3451E+01  0.2643E+02
      5.848  0.2076E+01  0.2674E+02
      6.000  0.4796E+01  0.2747E+02
      6.152  0.2965E+01  0.2792E+02
      6.305  0.3108E+01  0.2840E+02
      6.457  0.4273E+01  0.2905E+02
      6.609  0.7350E+01  0.3017E+02
      6.762  0.1030E+02  0.3174E+02
      6.914  0.2253E+01  0.3208E+02
      7.066  0.1622E+01  0.3233E+02
      7.218  0.3826E+01  0.3291E+02
      7.371  0.1881E+01  0.3319E+02
      7.523  0.5232E+00  0.3327E+02
      7.675  0.3682E+00  0.3333E+02
      7.827  0.4075E+00  0.3339E+02
      7.980  0.2051E+01  0.3370E+02
      8.132  0.2952E+01  0.3415E+02
      8.284  0.1006E+01  0.3431E+02
      8.436  0.3418E+00  0.3436E+02
      8.589  0.5077E+00  0.3444E+02
      8.741  0.1261E+01  0.3463E+02
      8.893  0.1434E+01  0.3485E+02
      9.045  0.2268E+01  0.3519E+02
      9.198  0.8851E+00  0.3533E+02
      9.350  0.4320E+00  0.3539E+02
      9.502  0.3890E+00  0.3545E+02
      9.654  0.2082E+01  0.3577E+02
      9.807  0.9718E+00  0.3592E+02
      9.959 -0.8480E-02  0.3592E+02
     10.111  0.4271E+00  0.3598E+02
     10.263  0.1341E+00  0.3600E+02
     10.416 -0.3862E-02  0.3600E+02
     10.568 -0.1735E-03  0.3600E+02
     10.720 -0.1543E-07  0.3600E+02
     10.872 -0.1059E-13  0.3600E+02
     11.025  0.0000E+00  0.3600E+02
     11.177  0.0000E+00  0.3600E+02
     11.329  0.0000E+00  0.3600E+02
     11.481  0.0000E+00  0.3600E+02
     11.634  0.0000E+00  0.3600E+02
     11.786  0.0000E+00  0.3600E+02
     11.938  0.0000E+00  0.3600E+02
     12.090  0.0000E+00  0.3600E+02
     12.243  0.0000E+00  0.3600E+02
