    2    2    1    1
  0.2438357E+02  0.3653500E-09  0.3653500E-09  0.3653500E-09  0.5000000E-15
  1.000000000000000E-004
  CAR 
 unknown system                          
     22     35     18
 
  0.0000000E+00  0.0000000E+00  0.0000000E+00  0.1371742E-02
      1        -31.252194   1.000000
      2        -31.252194   1.000000
      3        -31.252194   1.000000
      4        -30.954878   1.000000
      5        -30.954878   1.000000
      6        -30.954878   1.000000
      7         -3.411870   1.000000
      8          0.931548   1.000000
      9          0.931548   1.000000
     10          3.898092  -0.000000
     11          3.898092  -0.000000
     12          3.898092  -0.000000
     13          6.203427   0.000000
     14          6.203427   0.000000
     15          7.893663   0.000000
     16          7.893663   0.000000
     17          7.893663   0.000000
     18          9.675456   0.000000
 
  0.1111111E+00  0.4799022E-33  0.0000000E+00  0.8230453E-02
      1        -31.250458   1.000000
      2        -31.242858   1.000000
      3        -31.242858   1.000000
      4        -30.971424   1.000000
      5        -30.963440   1.000000
      6        -30.963440   1.000000
      7         -3.216553   1.000000
      8          1.036642   1.000000
      9          1.040837   1.000000
     10          3.875194  -0.000000
     11          3.875194  -0.000000
     12          3.990017  -0.000000
     13          5.944931  -0.000000
     14          6.294661   0.000000
     15          7.095824   0.000000
     16          7.095824   0.000000
     17          7.726991   0.000000
     18          8.814677   0.000000
 
  0.2222222E+00 -0.7598015E-32  0.0000000E+00  0.8230453E-02
      1        -31.243015   1.000000
      2        -31.216095   1.000000
      3        -31.216095   1.000000
      4        -31.016270   1.000000
      5        -30.988259   1.000000
      6        -30.988259   1.000000
      7         -2.649109   1.000000
      8          1.231549   1.000000
      9          1.365223   1.000000
     10          3.841659  -0.000000
     11          3.841659  -0.000000
     12          4.261117  -0.000000
     13          5.269803  -0.000000
     14          6.006936   0.000000
     15          6.006936   0.000000
     16          6.526958   0.000000
     17          7.272854   0.000000
     18          7.430587   0.000000
 
  0.3333333E+00  0.4034546E-32  0.0000000E+00  0.8230453E-02
      1        -31.224554   1.000000
      2        -31.175448   1.000000
      3        -31.175448   1.000000
      4        -31.077088   1.000000
      5        -31.026698   1.000000
      6        -31.026698   1.000000
      7         -1.766750   1.000000
      8          1.132402   1.000000
      9          1.893252   1.000000
     10          3.878309  -0.000000
     11          3.878309  -0.000000
     12          4.381413  -0.000000
     13          4.697064  -0.000000
     14          5.114123  -0.000000
     15          5.114123  -0.000000
     16          6.570027   0.000000
     17          6.638791   0.000000
     18          6.759578   0.000000
 
  0.4444444E+00 -0.1519603E-31  0.0000000E+00  0.8230453E-02
      1        -31.190131   1.000000
      2        -31.139039   1.000000
      3        -31.126188   1.000000
      4        -31.126188   1.000000
      5        -31.074519   1.000000
      6        -31.074519   1.000000
      7         -0.677484   1.000000
      8          0.412903   1.000000
      9          2.602752   1.000000
     10          3.454568  -0.013172
     11          4.067525  -0.000000
     12          4.067525  -0.000000
     13          4.468835  -0.000000
     14          4.468835  -0.000000
     15          5.271247  -0.000000
     16          5.940441  -0.000000
     17          6.524467   0.000000
     18          6.766526   0.000000
 
  0.1111111E+00  0.1111111E+00  0.0000000E+00  0.1646091E-01
      1        -31.265032   1.000000
      2        -31.234029   1.000000
      3        -31.218154   1.000000
      4        -31.003988   1.000000
      5        -30.971439   1.000000
      6        -30.954723   1.000000
      7         -3.026326   1.000000
      8          1.132291   1.000000
      9          1.155659   1.000000
     10          3.684326  -0.000000
     11          3.820027  -0.000000
     12          4.256599  -0.000000
     13          5.934161  -0.000000
     14          6.215290   0.000000
     15          6.328500   0.000000
     16          6.385362   0.000000
     17          7.956631   0.000000
     18          9.545525   0.000000
 
  0.2222222E+00  0.1111111E+00  0.0000000E+00  0.3292181E-01
      1        -31.271098   1.000000
      2        -31.208745   1.000000
      3        -31.180653   1.000000
      4        -31.059478   1.000000
      5        -30.994626   1.000000
      6        -30.965309   1.000000
      7         -2.475300   1.000000
      8          1.322513   1.000000
      9          1.460924   1.000000
     10          3.530204  -0.000767
     11          3.697049  -0.000000
     12          4.663611  -0.000000
     13          5.352025  -0.000000
     14          5.419316  -0.000000
     15          5.475155  -0.000000
     16          6.425041   0.000000
     17          7.741814   0.000000
     18          8.253564   0.000000
 
  0.3333333E+00  0.1111111E+00  0.0000000E+00  0.3292181E-01
      1        -31.261826   1.000000
      2        -31.170394   1.000000
      3        -31.135172   1.000000
      4        -31.124382   1.000000
      5        -31.030597   1.000000
      6        -30.994373   1.000000
      7         -1.623634   1.000000
      8          1.196915   1.000000
      9          1.936473   1.000000
     10          3.499923  -0.002841
     11          3.531623  -0.000718
     12          4.602340  -0.000000
     13          4.815961  -0.000000
     14          4.865669  -0.000000
     15          5.179971  -0.000000
     16          6.697095   0.000000
     17          7.103589   0.000000
     18          7.178031   0.000000
 
  0.4444444E+00  0.1111111E+00  0.0000000E+00  0.3292181E-01
      1        -31.233537   1.000000
      2        -31.185943   1.000000
      3        -31.123998   1.000000
      4        -31.085350   1.000000
      5        -31.075436   1.000000
      6        -31.036410   1.000000
      7         -0.580029   1.000000
      8          0.468152   1.000000
      9          2.544096   1.000000
     10          3.157458   1.034139
     11          3.645568  -0.000001
     12          4.007046  -0.000000
     13          4.554032  -0.000000
     14          4.635819  -0.000000
     15          5.799624  -0.000000
     16          6.488933   0.000000
     17          6.679217   0.000000
     18          6.759180   0.000000
 
  0.2222222E+00  0.2222222E+00  0.0000000E+00  0.1646091E-01
      1        -31.297408   1.000000
      2        -31.187742   1.000000
      3        -31.130964   1.000000
      4        -31.126377   1.000000
      5        -31.013142   1.000000
      6        -30.954354   1.000000
      7         -1.978737   1.000000
      8          1.383892   1.000000
      9          1.802164   1.000000
     10          3.196562   0.975040
     11          3.444515  -0.017128
     12          4.554647  -0.000000
     13          4.657208  -0.000000
     14          5.284256  -0.000000
     15          5.751717  -0.000000
     16          6.290375   0.000000
     17          8.120012   0.000000
     18          9.024980   0.000000
 
  0.3333333E+00  0.2222222E+00  0.0000000E+00  0.3292181E-01
      1        -31.306262   1.000000
      2        -31.195416   1.000000
      3        -31.156026   1.000000
      4        -31.080019   1.000000
      5        -31.042027   1.000000
      6        -30.964266   1.000000
      7         -1.233746   1.000000
      8          1.139299   1.000000
      9          2.235744   1.000000
     10          3.022371   1.001220
     11          3.231759   0.806755
     12          3.828995  -0.000000
     13          4.592858  -0.000000
     14          5.539320  -0.000000
     15          5.970766  -0.000000
     16          6.538732   0.000000
     17          7.934522   0.000000
     18          7.941712   0.000000
 
  0.4444444E+00  0.2222222E+00  0.0000000E+00  0.3292181E-01
      1        -31.292222   1.000000
      2        -31.253879   1.000000
      3        -31.117905   1.000000
      4        -31.078304   1.000000
      5        -31.032056   1.000000
      6        -30.991768   1.000000
      7         -0.359996   1.000000
      8          0.492040   1.000000
      9          2.661943   1.000000
     10          3.006109   1.000575
     11          3.055409   1.004644
     12          3.322228   0.124325
     13          4.992298  -0.000000
     14          5.277533  -0.000000
     15          6.691567   0.000000
     16          6.729406   0.000000
     17          7.023294   0.000000
     18          7.389826   0.000000
 
  0.3333333E+00  0.3333333E+00  0.0000000E+00  0.1646091E-01
      1        -31.333988   1.000000
      2        -31.262267   1.000000
      3        -31.134576   1.000000
      4        -31.060141   1.000000
      5        -31.029956   1.000000
      6        -30.953951   1.000000
      7         -0.705810   1.000000
      8          0.799273   1.000000
      9          2.712678   1.000000
     10          2.777737   1.000000
     11          3.186528   1.001060
     12          3.196450   0.975382
     13          4.824001  -0.000000
     14          5.952830  -0.000000
     15          6.466287   0.000000
     16          6.794596   0.000000
     17          8.012230   0.000000
     18          8.313209   0.000000
 
  0.4444444E+00  0.3333333E+00  0.0000000E+00  0.3292181E-01
      1        -31.337053   1.000000
      2        -31.312262   1.000000
      3        -31.109196   1.000000
      4        -31.083340   1.000000
      5        -30.989784   1.000000
      6        -30.963307   1.000000
      7         -0.163502   1.000000
      8          0.339797   1.000000
      9          2.626767   1.000000
     10          2.787574   1.000000
     11          3.198198   0.969929
     12          3.286054   0.375845
     13          5.396363  -0.000000
     14          5.847504  -0.000000
     15          6.673432   0.000000
     16          7.197521   0.000000
     17          7.558235   0.000000
     18          8.132727   0.000000
 
  0.4444444E+00  0.4444444E+00  0.0000000E+00  0.1646091E-01
      1        -31.357733   1.000000
      2        -31.349167   1.000000
      3        -31.099563   1.000000
      4        -31.090580   1.000000
      5        -30.962931   1.000000
      6        -30.953701   1.000000
      7         -0.024503   1.000000
      8          0.134576   1.000000
      9          2.427585   1.000000
     10          2.481141   1.000000
     11          3.771208  -0.000000
     12          3.781892  -0.000000
     13          5.788128  -0.000000
     14          6.018356   0.000000
     15          6.649279   0.000000
     16          6.902265   0.000000
     17          8.210955   0.000000
     18          8.443912   0.000000
 
  0.1111111E+00  0.1111111E+00  0.1111111E+00  0.1097394E-01
      1        -31.255312   1.000000
      2        -31.255312   1.000000
      3        -31.189037   1.000000
      4        -31.032921   1.000000
      5        -30.963688   1.000000
      6        -30.963688   1.000000
      7         -2.839969   1.000000
      8          1.249463   1.000000
      9          1.249463   1.000000
     10          3.625088  -0.000003
     11          3.625088  -0.000003
     12          4.526632  -0.000000
     13          5.269265  -0.000000
     14          6.052925   0.000000
     15          6.052926   0.000000
     16          7.170825   0.000000
     17          7.170825   0.000000
     18         10.166505   0.000000
 
  0.2222222E+00  0.1111111E+00  0.1111111E+00  0.3292181E-01
      1        -31.271536   1.000000
      2        -31.227440   1.000000
      3        -31.148017   1.000000
      4        -31.088543   1.000000
      5        -30.989649   1.000000
      6        -30.966552   1.000000
      7         -2.301693   1.000000
      8          1.459786   1.000000
      9          1.522981   1.000000
     10          3.411153  -0.031791
     11          3.474505  -0.007175
     12          4.345845  -0.000000
     13          5.002311  -0.000000
     14          5.625493  -0.000000
     15          6.142374   0.000000
     16          6.348191   0.000000
     17          7.148181   0.000000
     18          9.150810   0.000000
 
  0.3333333E+00  0.1111111E+00  0.1111111E+00  0.3292181E-01
      1        -31.271566   1.000000
      2        -31.185085   1.000000
      3        -31.151745   1.000000
      4        -31.103570   1.000000
      5        -31.029836   1.000000
      6        -30.985915   1.000000
      7         -1.474633   1.000000
      8          1.301762   1.000000
      9          1.948297   1.000000
     10          3.263182   0.567641
     11          3.350876   0.010794
     12          3.891534  -0.000000
     13          5.111610  -0.000000
     14          5.347661  -0.000000
     15          5.578385  -0.000000
     16          6.610611   0.000000
     17          6.649849   0.000000
     18          8.102174   0.000000
 
  0.4444444E+00  0.1111111E+00  0.1111111E+00  0.3292181E-01
      1        -31.251019   1.000000
      2        -31.209368   1.000000
      3        -31.133717   1.000000
      4        -31.079789   1.000000
      5        -31.058963   1.000000
      6        -31.018233   1.000000
      7         -0.468406   1.000000
      8          0.548129   1.000000
      9          2.461757   1.000000
     10          2.939324   1.000014
     11          3.480424  -0.005868
     12          3.716028  -0.000000
     13          4.789064  -0.000000
     14          4.871565  -0.000000
     15          6.191839   0.000000
     16          6.383558   0.000000
     17          6.787793   0.000000
     18          7.244768   0.000000
 
  0.2222222E+00  0.2222222E+00  0.1111111E+00  0.3292181E-01
      1        -31.286724   1.000000
      2        -31.216448   1.000000
      3        -31.145898   1.000000
      4        -31.102938   1.000000
      5        -31.005280   1.000000
      6        -30.964326   1.000000
      7         -1.806826   1.000000
      8          1.560568   1.000000
      9          1.848795   1.000000
     10          3.112610   1.023717
     11          3.235329   0.783018
     12          3.537148  -0.000552
     13          5.624123  -0.000000
     14          5.681031  -0.000000
     15          5.858037  -0.000000
     16          6.258096   0.000000
     17          7.322736   0.000000
     18         10.027620   0.000000
 
  0.3333333E+00  0.2222222E+00  0.1111111E+00  0.6584362E-01
      1        -31.298469   1.000000
      2        -31.207271   1.000000
      3        -31.179765   1.000000
      4        -31.059453   1.000000
      5        -31.039420   1.000000
      6        -30.971038   1.000000
      7         -1.068593   1.000000
      8          1.308559   1.000000
      9          2.198860   1.000000
     10          2.913614   1.000003
     11          3.059256   1.005333
     12          3.281241   0.415530
     13          5.230101  -0.000000
     14          5.634822  -0.000000
     15          6.344174   0.000000
     16          6.529709   0.000000
     17          7.038452   0.000000
     18          8.991494   0.000000
 
  0.4444444E+00  0.2222222E+00  0.1111111E+00  0.6584362E-01
      1        -31.290234   1.000000
      2        -31.258595   1.000000
      3        -31.132938   1.000000
      4        -31.083932   1.000000
      5        -31.021045   1.000000
      6        -30.990631   1.000000
      7         -0.210177   1.000000
      8          0.630974   1.000000
      9          2.498421   1.000000
     10          2.738475   1.000000
     11          3.078599   1.010078
     12          3.227812   0.831676
     13          5.229054  -0.000000
     14          5.381706  -0.000000
     15          6.614497   0.000000
     16          6.641415   0.000000
     17          7.178294   0.000000
     18          8.053391   0.000000
 
  0.3333333E+00  0.3333333E+00  0.1111111E+00  0.3292181E-01
      1        -31.322225   1.000000
      2        -31.263984   1.000000
      3        -31.154869   1.000000
      4        -31.059981   1.000000
      5        -31.020630   1.000000
      6        -30.965073   1.000000
      7         -0.522732   1.000000
      8          0.970139   1.000000
      9          2.645101   1.000000
     10          2.738807   1.000000
     11          2.893607   1.000001
     12          2.993490   1.000307
     13          5.214007  -0.000000
     14          6.000589  -0.000000
     15          6.481723   0.000000
     16          7.170717   0.000000
     17          7.291217   0.000000
     18          9.260426   0.000000
 
  0.4444444E+00  0.3333333E+00  0.1111111E+00  0.6584362E-01
      1        -31.326903   1.000000
      2        -31.306802   1.000000
      3        -31.122071   1.000000
      4        -31.088702   1.000000
      5        -30.990817   1.000000
      6        -30.971847   1.000000
      7          0.023077   1.000000
      8          0.515476   1.000000
      9          2.546029   1.000000
     10          2.632737   1.000000
     11          3.125093   1.029346
     12          3.131667   1.031940
     13          5.572757  -0.000000
     14          5.912050  -0.000000
     15          6.643599   0.000000
     16          6.920258   0.000000
     17          7.958979   0.000000
     18          8.685220   0.000000
 
  0.4444444E+00  0.4444444E+00  0.1111111E+00  0.3292181E-01
      1        -31.345271   1.000000
      2        -31.338352   1.000000
      3        -31.108520   1.000000
      4        -31.096740   1.000000
      5        -30.972019   1.000000
      6        -30.965571   1.000000
      7          0.172888   1.000000
      8          0.325488   1.000000
      9          2.379917   1.000000
     10          2.420473   1.000000
     11          3.560634  -0.000167
     12          3.606290  -0.000011
     13          5.897861  -0.000000
     14          6.083321   0.000000
     15          6.662002   0.000000
     16          6.820967   0.000000
     17          8.576231   0.000000
     18          8.858613   0.000000
 
  0.2222222E+00  0.2222222E+00  0.2222222E+00  0.1097394E-01
      1        -31.256069   1.000000
      2        -31.256069   1.000000
      3        -31.189291   1.000000
      4        -31.063167   1.000000
      5        -30.993183   1.000000
      6        -30.993183   1.000000
      7         -1.321439   1.000000
      8          1.974783   1.000000
      9          1.974783   1.000000
     10          2.650183   1.000000
     11          2.910539   1.000002
     12          2.910539   1.000002
     13          6.141577   0.000000
     14          6.141577   0.000000
     15          6.340556   0.000000
     16          6.461832   0.000000
     17          6.461833   0.000000
     18          9.739063   0.000000
 
  0.3333333E+00  0.2222222E+00  0.2222222E+00  0.3292181E-01
      1        -31.283289   1.000000
      2        -31.236404   1.000000
      3        -31.209423   1.000000
      4        -31.037787   1.000000
      5        -31.029695   1.000000
      6        -30.987585   1.000000
      7         -0.615842   1.000000
      8          1.627821   1.000000
      9          2.142905   1.000000
     10          2.683114   1.000000
     11          2.748132   1.000000
     12          2.758053   1.000000
     13          5.903201  -0.000000
     14          5.940648  -0.000000
     15          6.485505   0.000000
     16          6.570561   0.000000
     17          7.136089   0.000000
     18          9.704073   0.000000
 
  0.4444444E+00  0.2222222E+00  0.2222222E+00  0.3292181E-01
      1        -31.289857   1.000000
      2        -31.273062   1.000000
      3        -31.152746   1.000000
      4        -31.093131   1.000000
      5        -31.005512   1.000000
      6        -30.991466   1.000000
      7          0.165074   1.000000
      8          0.909323   1.000000
      9          2.314517   1.000000
     10          2.485582   1.000000
     11          2.850658   1.000000
     12          2.987443   1.000225
     13          5.681202  -0.000000
     14          5.738728  -0.000000
     15          6.499583   0.000000
     16          6.611853   0.000000
     17          7.989479   0.000000
     18          8.944057   0.000000
 
  0.3333333E+00  0.3333333E+00  0.2222222E+00  0.3292181E-01
      1        -31.288448   1.000000
      2        -31.269362   1.000000
      3        -31.196291   1.000000
      4        -31.056807   1.000000
      5        -31.008612   1.000000
      6        -30.997226   1.000000
      7         -0.013596   1.000000
      8          1.383680   1.000000
      9          2.458647   1.000000
     10          2.489971   1.000000
     11          2.610411   1.000000
     12          2.626033   1.000000
     13          5.914593  -0.000000
     14          6.201493   0.000000
     15          6.501934   0.000000
     16          6.728104   0.000000
     17          8.004866   0.000000
     18          9.568677   0.000000
 
  0.4444444E+00  0.3333333E+00  0.2222222E+00  0.6584362E-01
      1        -31.299160   1.000000
      2        -31.293073   1.000000
      3        -31.151044   1.000000
      4        -31.099964   1.000000
      5        -30.998252   1.000000
      6        -30.996433   1.000000
      7          0.536478   1.000000
      8          0.970787   1.000000
      9          2.381371   1.000000
     10          2.386009   1.000000
     11          2.759708   1.000000
     12          2.902476   1.000001
     13          5.989556  -0.000000
     14          6.138450   0.000000
     15          6.634755   0.000000
     16          6.667474   0.000000
     17          8.829370   0.000000
     18          9.599788   0.000000
 
  0.4444444E+00  0.4444444E+00  0.2222222E+00  0.3292181E-01
      1        -31.309486   1.000000
      2        -31.307973   1.000000
      3        -31.131603   1.000000
      4        -31.111326   1.000000
      5        -30.999878   1.000000
      6        -30.998566   1.000000
      7          0.729624   1.000000
      8          0.852474   1.000000
      9          2.275993   1.000000
     10          2.298836   1.000000
     11          3.093939   1.015505
     12          3.198320   0.969537
     13          6.180386   0.000000
     14          6.281559   0.000000
     15          6.691940   0.000000
     16          6.738074   0.000000
     17          9.454357   0.000000
     18          9.634132   0.000000
 
  0.3333333E+00  0.3333333E+00  0.3333333E+00  0.1097394E-01
      1        -31.276255   1.000000
      2        -31.236984   1.000000
      3        -31.236984   1.000000
      4        -31.046849   1.000000
      5        -31.046849   1.000000
      6        -31.006799   1.000000
      7          0.668723   1.000000
      8          1.566363   1.000000
      9          2.343765   1.000000
     10          2.343766   1.000000
     11          2.469098   1.000000
     12          2.469098   1.000000
     13          6.452148   0.000000
     14          6.452148   0.000000
     15          6.486434   0.000000
     16          6.486435   0.000000
     17          8.933630   0.000000
     18          8.951912   0.000000
 
  0.4444444E+00  0.3333333E+00  0.3333333E+00  0.3292181E-01
      1        -31.277576   1.000000
      2        -31.265470   1.000000
      3        -31.174336   1.000000
      4        -31.108293   1.000000
      5        -31.031302   1.000000
      6        -31.015822   1.000000
      7          1.182747   1.000000
      8          1.406972   1.000000
      9          2.282680   1.000000
     10          2.333125   1.000000
     11          2.443782   1.000000
     12          2.663882   1.000000
     13          6.389984   0.000000
     14          6.432466   0.000000
     15          6.620088   0.000000
     16          6.655648   0.000000
     17          9.072657   0.000000
     18          9.646733   0.000000
 
  0.4444444E+00  0.4444444E+00  0.3333333E+00  0.3292181E-01
      1        -31.264652   1.000000
      2        -31.254909   1.000000
      3        -31.160270   1.000000
      4        -31.123637   1.000000
      5        -31.052774   1.000000
      6        -31.039229   1.000000
      7          1.518166   1.000000
      8          1.531819   1.000000
      9          2.201536   1.000000
     10          2.258700   1.000000
     11          2.611898   1.000000
     12          2.760205   1.000000
     13          6.517713   0.000000
     14          6.551048   0.000000
     15          6.720747   0.000000
     16          6.721594   0.000000
     17          8.612583   0.000000
     18          8.956817   0.000000
 
  0.4444444E+00  0.4444444E+00  0.4444444E+00  0.1097394E-01
      1        -31.220967   1.000000
      2        -31.188400   1.000000
      3        -31.188399   1.000000
      4        -31.118186   1.000000
      5        -31.118186   1.000000
      6        -31.085173   1.000000
      7          1.966238   1.000000
      8          2.235454   1.000000
      9          2.235455   1.000000
     10          2.238569   1.000000
     11          2.421554   1.000000
     12          2.421554   1.000000
     13          6.731017   0.000000
     14          6.731018   0.000000
     15          6.735865   0.000000
     16          6.735865   0.000000
     17          7.923823   0.000000
     18          8.074219   0.000000
