 vasp.6.3.0 20Jan22 (build Mar 25 2022 12:20:17) complex                        
  
 executed on             LinuxIFC date 2023.08.20  15:15:25
 running on   96 total cores
 distrk:  each k-point on   96 cores,    1 groups
 distr:  one band on NCORE=  16 cores,    6 groups


--------------------------------------------------------------------------------------------------------


 INCAR:
   ALGO = normal
   EDIFF = 1E-5
   KSPACING = 0.20000
   LASPH = .TRUE.
   ENCUT = 520
   ISIF = 2
   ISMEAR = 1
   LREAL = Auto
   LWAVE = False
   LCHARG = .FALSE.
   NELM = 400
   NSW = 0
   PREC = Accurate
   SIGMA = 0.1
   NPAR = 6

 POTCAR:    PAW_PBE Ta_pv 07Sep2000               
 POTCAR:    PAW_PBE Ta_pv 07Sep2000               
   SHA256 =  00d0a14a36c127416459414afb8617d9754996fffa60a2465888e660b20a452f Ta_pv/POTCAR          
   COPYR  = (c) Copyright 07Sep2000 Georg Kresse                                                    
   COPYR  = This file is part of the software VASP. Any use, copying, and all other rights are regul
   COPYR  = If you do not have a valid VASP license, you may not use, copy or distribute this file. 
   VRHFIN =Ta:  5p6s5d                                                                              
   LEXCH  = PE                                                                                      
   EATOM  =  1047.1984 eV,   76.9669 Ry                                                             
                                                                                                    
   TITEL  = PAW_PBE Ta_pv 07Sep2000                                                                 
   LULTRA =        F    use ultrasoft PP ?                                                          
   IUNSCR =        1    unscreen: 0-lin 1-nonlin 2-no                                               
   RPACOR =    2.330    partial core radius                                                         
   POMASS =  180.948; ZVAL   =   11.000    mass and valenz                                          
   RCORE  =    2.500    outmost cutoff radius                                                       
   RWIGS  =    2.840; RWIGS  =    1.503    wigner-seitz radius (au A)                               
   ENMAX  =  223.667; ENMIN  =  167.750 eV                                                          
   RCLOC  =    2.205    cutoff for local pot                                                        
   LCOR   =        T    correct aug charges                                                         
   LPAW   =        T    paw PP                                                                      
   EAUG   =  377.421                                                                                
   DEXC   =    0.000                                                                                
   RMAX   =    2.551    core radius for proj-oper                                                   
   RAUG   =    1.300    factor for augmentation sphere                                              
   RDEP   =    2.526    radius for radial grids                                                     
   RDEPT  =    2.132    core radius for aug-charge                                                  
                                                                                                    
   Atomic configuration                                                                             
   15 entries                                                                                       
     n  l   j            E        occ.                                                              
     1  0  0.50    -67341.2801   2.0000                                                             
     2  0  0.50    -11566.9369   2.0000                                                             
     2  1  1.50    -10134.1175   6.0000                                                             
     3  0  0.50     -2648.5614   2.0000                                                             
     3  1  1.50     -2222.6006   6.0000                                                             
     3  2  2.50     -1726.3114  10.0000                                                             
     4  0  0.50      -538.6957   2.0000                                                             
     4  1  1.50      -399.0125   6.0000                                                             
     4  2  2.50      -220.3955  10.0000                                                             
     4  3  3.50       -23.0371  14.0000                                                             
     5  0  0.50       -71.2900   2.0000                                                             
     5  1  1.50       -37.8224   6.0000                                                             
     5  2  2.50        -2.6455   4.0000                                                             
     6  0  0.50        -4.9623   1.0000                                                             
     5  3  2.50        -1.3606   0.0000                                                             
   Description                                                                                      
     l       E           TYP  RCUT    TYP  RCUT                                                     
     1    -37.8224449     23  2.500                                                                 
     1      1.3605826     23  2.500                                                                 
     2     -2.6454718     23  2.500                                                                 
     2     -0.6258570     23  2.500                                                                 
     0     -4.9622674     23  2.500                                                                 
     0      4.7531427     23  2.500                                                                 
  local pseudopotential read in
  partial core-charges read in
  partial kinetic energy density read in
  atomic valenz-charges read in
  non local Contribution for L=           1  read in
    real space projection operators read in
  non local Contribution for L=           1  read in
    real space projection operators read in
  non local Contribution for L=           2  read in
    real space projection operators read in
  non local Contribution for L=           2  read in
    real space projection operators read in
  non local Contribution for L=           0  read in
    real space projection operators read in
  non local Contribution for L=           0  read in
    real space projection operators read in
    PAW grid and wavefunctions read in
 
   number of l-projection  operators is LMAX  =           6
   number of lm-projection operators is LMMAX =          18
 
 -----------------------------------------------------------------------------
|                                                                             |
|               ----> ADVICE to this user running VASP <----                  |
|                                                                             |
|     You have a (more or less) 'small supercell' and for smaller cells       |
|     it is recommended to use the reciprocal-space projection scheme!        |
|     The real-space optimization is not efficient for small cells and it     |
|     is also less accurate ...                                               |
|     Therefore, set LREAL=.FALSE. in the INCAR file.                         |
|                                                                             |
 -----------------------------------------------------------------------------

 Optimization of the real space projectors (new method)

 maximal supplied QI-value         = 15.12
 optimisation between [QCUT,QGAM] = [ 11.64, 23.28] = [ 37.95,151.78] Ry 
 Optimized for a Real-space Cutoff    1.58 Angstroem

   l    n(q)    QCUT    max X(q) W(low)/X(q) W(high)/X(q)  e(spline) 
   1     11    11.641     4.092    0.14E-04    0.12E-05    0.47E-07
   1     11    11.641     4.834    0.39E-04    0.18E-04    0.22E-06
   2     10    11.641    62.294    0.58E-04    0.39E-03    0.13E-05
   2     10    11.641    50.966    0.58E-04    0.39E-03    0.13E-05
   0     11    11.641   103.792    0.30E-04    0.35E-04    0.21E-06
   0     11    11.641    56.335    0.22E-04    0.32E-04    0.20E-06
  PAW_PBE Ta_pv 07Sep2000               :
 energy of atom  1       EATOM=-1047.1984
 kinetic energy error for atom=    0.0016 (will be added to EATOM!!)
 
 
 POSCAR: Ta2
  positions in direct lattice
  velocities in cartesian coordinates
 exchange correlation table for  LEXCH =        8
   RHO(1)=    0.500       N(1)  =     2000
   RHO(2)=  100.500       N(2)  =     4000
 


--------------------------------------------------------------------------------------------------------


 ion  position               nearest neighbor table
   1  0.000  0.000  0.000-   2 3.16   2 3.16   2 3.16   2 3.16   2 3.16   2 3.16   2 3.16   2 3.16

   2  0.500  0.500  0.500-   1 3.16   1 3.16   1 3.16   1 3.16   1 3.16   1 3.16   1 3.16   1 3.16

 
  LATTYP: Found a simple cubic cell.
 ALAT       =     3.6535000870
  
  Lattice vectors:
  
 A1 = (   3.6535000870,   0.0000000000,   0.0000000000)
 A2 = (   0.0000000000,   3.6535000870,   0.0000000000)
 A3 = (   0.0000000000,   0.0000000000,   3.6535000870)


Analysis of symmetry for initial positions (statically):
=====================================================================
 Subroutine PRICEL returns following result:
 
  LATTYP: Found a body centered cubic cell.
 ALAT       =     3.6535000870
  
  Lattice vectors:
  
 A1 = (   1.8267500435,   1.8267500435,  -1.8267500435)
 A2 = (  -1.8267500435,   1.8267500435,   1.8267500435)
 A3 = (   1.8267500435,  -1.8267500435,   1.8267500435)
 
   2 primitive cells build up your supercell.
 

 Routine SETGRP: Setting up the symmetry group for a 
 simple cubic supercell.


 Subroutine GETGRP returns: Found 48 space group operations
 (whereof 48 operations were pure point group operations)
 out of a pool of 48 trial point group operations.


The static configuration has the point symmetry O_h .


Analysis of symmetry for dynamics (positions and initial velocities):
=====================================================================
 Subroutine PRICEL returns following result:
 
  LATTYP: Found a body centered cubic cell.
 ALAT       =     3.6535000870
  
  Lattice vectors:
  
 A1 = (   1.8267500435,   1.8267500435,  -1.8267500435)
 A2 = (  -1.8267500435,   1.8267500435,   1.8267500435)
 A3 = (   1.8267500435,  -1.8267500435,   1.8267500435)
 
   2 primitive cells build up your supercell.
 

 Routine SETGRP: Setting up the symmetry group for a 
 simple cubic supercell.


 Subroutine GETGRP returns: Found 48 space group operations
 (whereof 48 operations were pure point group operations)
 out of a pool of 48 trial point group operations.


The dynamic configuration has the point symmetry O_h .


 Subroutine INISYM returns: Found 48 space group operations
 (whereof 48 operations are pure point group operations),
 and found     2 'primitive' translations


----------------------------------------------------------------------------------------

                                     Primitive cell                                     

  volume of cell :      24.3836

  direct lattice vectors                    reciprocal lattice vectors
     1.826750044  1.826750044 -1.826750044     0.273710134  0.273710134 -0.000000000
    -1.826750044  1.826750044  1.826750044    -0.000000000  0.273710134  0.273710134
     1.826750044 -1.826750044  1.826750044     0.273710134 -0.000000000  0.273710134

  length of vectors
     3.164023888  3.164023888  3.164023888     0.387084584  0.387084584  0.387084584

  position of ions in fractional coordinates (direct lattice)
     0.000000000  0.000000000  0.000000000

  ion indices of the primitive-cell ions
   primitive index   ion index
                 1           1

----------------------------------------------------------------------------------------

 
 -----------------------------------------------------------------------------
|                                                                             |
|           W    W    AA    RRRRR   N    N  II  N    N   GGGG   !!!           |
|           W    W   A  A   R    R  NN   N  II  NN   N  G    G  !!!           |
|           W    W  A    A  R    R  N N  N  II  N N  N  G       !!!           |
|           W WW W  AAAAAA  RRRRR   N  N N  II  N  N N  G  GGG   !            |
|           WW  WW  A    A  R   R   N   NN  II  N   NN  G    G                |
|           W    W  A    A  R    R  N    N  II  N    N   GGGG   !!!           |
|                                                                             |
|     The requested file  could not be found or opened for reading            |
|     k-point information. Automatic k-point generation is used as a          |
|     fallback, which may lead to unwanted results.                           |
|                                                                             |
 -----------------------------------------------------------------------------

 

Automatic generation of k-mesh.
 Grid dimensions derived from KSPACING:
 generate k-points for:    9    9    9

 Generating k-lattice:

  Cartesian coordinates                     Fractional coordinates (reciprocal lattice)
     0.030412237 -0.000000000  0.000000000     0.111111111 -0.000000000  0.000000000
     0.000000000  0.030412237  0.000000000     0.000000000  0.111111111  0.000000000
    -0.000000000 -0.000000000  0.030412237     0.000000000 -0.000000000  0.111111111

  Length of vectors
     0.030412237  0.030412237  0.030412237

  Shift w.r.t. Gamma in fractional coordinates (k-lattice)
     0.000000000  0.000000000  0.000000000

 
 Subroutine IBZKPT returns following result:
 ===========================================
 
 Found     35 irreducible k-points:
 
 Following reciprocal coordinates:
            Coordinates               Weight
  0.000000  0.000000  0.000000      1.000000
  0.111111  0.000000  0.000000      6.000000
  0.222222 -0.000000  0.000000      6.000000
  0.333333  0.000000  0.000000      6.000000
  0.444444 -0.000000  0.000000      6.000000
  0.111111  0.111111  0.000000     12.000000
  0.222222  0.111111  0.000000     24.000000
  0.333333  0.111111  0.000000     24.000000
  0.444444  0.111111  0.000000     24.000000
  0.222222  0.222222  0.000000     12.000000
  0.333333  0.222222  0.000000     24.000000
  0.444444  0.222222  0.000000     24.000000
  0.333333  0.333333  0.000000     12.000000
  0.444444  0.333333  0.000000     24.000000
  0.444444  0.444444  0.000000     12.000000
  0.111111  0.111111  0.111111      8.000000
  0.222222  0.111111  0.111111     24.000000
  0.333333  0.111111  0.111111     24.000000
  0.444444  0.111111  0.111111     24.000000
  0.222222  0.222222  0.111111     24.000000
  0.333333  0.222222  0.111111     48.000000
  0.444444  0.222222  0.111111     48.000000
  0.333333  0.333333  0.111111     24.000000
  0.444444  0.333333  0.111111     48.000000
  0.444444  0.444444  0.111111     24.000000
  0.222222  0.222222  0.222222      8.000000
  0.333333  0.222222  0.222222     24.000000
  0.444444  0.222222  0.222222     24.000000
  0.333333  0.333333  0.222222     24.000000
  0.444444  0.333333  0.222222     48.000000
  0.444444  0.444444  0.222222     24.000000
  0.333333  0.333333  0.333333      8.000000
  0.444444  0.333333  0.333333     24.000000
  0.444444  0.444444  0.333333     24.000000
  0.444444  0.444444  0.444444      8.000000
 
 Following cartesian coordinates:
            Coordinates               Weight
  0.000000  0.000000  0.000000      1.000000
  0.033453 -0.000000  0.000000      6.000000
  0.066907 -0.000000  0.000000      6.000000
  0.100360 -0.000000  0.000000      6.000000
  0.133814 -0.000000  0.000000      6.000000
  0.033453  0.033453  0.000000     12.000000
  0.066907  0.033453  0.000000     24.000000
  0.100360  0.033453  0.000000     24.000000
  0.133814  0.033453  0.000000     24.000000
  0.066907  0.066907  0.000000     12.000000
  0.100360  0.066907  0.000000     24.000000
  0.133814  0.066907  0.000000     24.000000
  0.100360  0.100360  0.000000     12.000000
  0.133814  0.100360  0.000000     24.000000
  0.133814  0.133814  0.000000     12.000000
  0.033453  0.033453  0.033453      8.000000
  0.066907  0.033453  0.033453     24.000000
  0.100360  0.033453  0.033453     24.000000
  0.133814  0.033453  0.033453     24.000000
  0.066907  0.066907  0.033453     24.000000
  0.100360  0.066907  0.033453     48.000000
  0.133814  0.066907  0.033453     48.000000
  0.100360  0.100360  0.033453     24.000000
  0.133814  0.100360  0.033453     48.000000
  0.133814  0.133814  0.033453     24.000000
  0.066907  0.066907  0.066907      8.000000
  0.100360  0.066907  0.066907     24.000000
  0.133814  0.066907  0.066907     24.000000
  0.100360  0.100360  0.066907     24.000000
  0.133814  0.100360  0.066907     48.000000
  0.133814  0.133814  0.066907     24.000000
  0.100360  0.100360  0.100360      8.000000
  0.133814  0.100360  0.100360     24.000000
  0.133814  0.133814  0.100360     24.000000
  0.133814  0.133814  0.133814      8.000000
 


--------------------------------------------------------------------------------------------------------




 Dimension of arrays:
   k-points           NKPTS =     35   k-points in BZ     NKDIM =     35   number of bands    NBANDS=     18
   number of dos      NEDOS =    301   number of ions     NIONS =      2
   non local maximal  LDIM  =      6   non local SUM 2l+1 LMDIM =     18
   total plane-waves  NPLWV =  21952
   max r-space proj   IRMAX =   7484   max aug-charges    IRDMAX=  25485
   dimension x,y,z NGX =    28 NGY =   28 NGZ =   28
   dimension x,y,z NGXF=    56 NGYF=   56 NGZF=   56
   support grid    NGXF=    56 NGYF=   56 NGZF=   56
   ions per type =               2
   NGX,Y,Z   is equivalent  to a cutoff of  12.74, 12.74, 12.74 a.u.
   NGXF,Y,Z  is equivalent  to a cutoff of  25.48, 25.48, 25.48 a.u.

 SYSTEM =  unknown system                          
 POSCAR =  Ta2                                     

 Startparameter for this run:
   NWRITE =      2    write-flag & timer
   PREC   = accura    normal or accurate (medium, high low for compatibility)
   ISTART =      0    job   : 0-new  1-cont  2-samecut
   ICHARG =      2    charge: 1-file 2-atom 10-const
   ISPIN  =      1    spin polarized calculation?
   LNONCOLLINEAR =      F non collinear calculations
   LSORBIT =      F    spin-orbit coupling
   INIWAV =      1    electr: 0-lowe 1-rand  2-diag
   LASPH  =      T    aspherical Exc in radial PAW
 Electronic Relaxation 1
   ENCUT  =  520.0 eV  38.22 Ry    6.18 a.u.   6.79  6.79  6.79*2*pi/ulx,y,z
   ENINI  =  520.0     initial cutoff
   ENAUG  =  377.4 eV  augmentation charge cutoff
   NELM   =    400;   NELMIN=  2; NELMDL= -5     # of ELM steps 
   EDIFF  = 0.1E-04   stopping-criterion for ELM
   LREAL  =      T    real-space projection
   NLSPLINE    = F    spline interpolate recip. space projectors
   LCOMPAT=      F    compatible to vasp.4.4
   GGA_COMPAT  = T    GGA compatible to vasp.4.4-vasp.4.6
   LMAXPAW     = -100 max onsite density
   LMAXMIX     =    2 max onsite mixed and CHGCAR
   VOSKOWN=      0    Vosko Wilk Nusair interpolation
   ROPT   =   -0.00025
 Ionic relaxation
   EDIFFG = 0.1E-03   stopping-criterion for IOM
   NSW    =      0    number of steps for IOM
   NBLOCK =      1;   KBLOCK =      1    inner block; outer block 
   IBRION =     -1    ionic relax: 0-MD 1-quasi-New 2-CG
   NFREE  =      0    steps in history (QN), initial steepest desc. (CG)
   ISIF   =      2    stress and relaxation
   IWAVPR =     10    prediction:  0-non 1-charg 2-wave 3-comb
   ISYM   =      2    0-nonsym 1-usesym 2-fastsym
   LCORR  =      T    Harris-Foulkes like correction to forces

   POTIM  = 0.5000    time-step for ionic-motion
   TEIN   =    0.0    initial temperature
   TEBEG  =    0.0;   TEEND  =   0.0 temperature during run
   SMASS  =  -3.00    Nose mass-parameter (am)
   estimated Nose-frequenzy (Omega)   =  0.10E-29 period in steps = 0.13E+47 mass=  -0.305E-27a.u.
   SCALEE = 1.0000    scale energy and forces
   NPACO  =    256;   APACO  = 10.0  distance and # of slots for P.C.
   PSTRESS=    0.0 pullay stress

  Mass of Ions in am
   POMASS = 180.95
  Ionic Valenz
   ZVAL   =  11.00
  Atomic Wigner-Seitz radii
   RWIGS  =  -1.00
  virtual crystal weights 
   VCA    =   1.00
   NELECT =      22.0000    total number of electrons
   NUPDOWN=      -1.0000    fix difference up-down

 DOS related values:
   EMIN   =  10.00;   EMAX   =-10.00  energy-range for DOS
   EFERMI =   0.00
   ISMEAR =     1;   SIGMA  =   0.10  broadening in eV -4-tet -1-fermi 0-gaus

 Electronic relaxation 2 (details)
   IALGO  =     38    algorithm
   LDIAG  =      T    sub-space diagonalisation (order eigenvalues)
   LSUBROT=      F    optimize rotation matrix (better conditioning)
   TURBO    =      0    0=normal 1=particle mesh
   IRESTART =      0    0=no restart 2=restart with 2 vectors
   NREBOOT  =      0    no. of reboots
   NMIN     =      0    reboot dimension
   EREF     =   0.00    reference energy to select bands
   IMIX   =      4    mixing-type and parameters
     AMIX     =   0.40;   BMIX     =  1.00
     AMIX_MAG =   1.60;   BMIX_MAG =  1.00
     AMIN     =   0.10
     WC   =   100.;   INIMIX=   1;  MIXPRE=   1;  MAXMIX= -45

 Intra band minimization:
   WEIMIN = 0.0000     energy-eigenvalue tresh-hold
   EBREAK =  0.14E-06  absolut break condition
   DEPER  =   0.30     relativ break condition  

   TIME   =   0.40     timestep for ELM

  volume/ion in A,a.u.               =      24.38       164.55
  Fermi-wavevector in a.u.,A,eV,Ry     =   1.255567  2.372678 21.448888  1.576449
  Thomas-Fermi vector in A             =   2.389317
 
 Write flags
   LWAVE        =      F    write WAVECAR
   LDOWNSAMPLE  =      F    k-point downsampling of WAVECAR
   LCHARG       =      F    write CHGCAR
   LVTOT        =      F    write LOCPOT, total local potential
   LVHAR        =      F    write LOCPOT, Hartree potential only
   LELF         =      F    write electronic localiz. function (ELF)
   LORBIT       =      0    0 simple, 1 ext, 2 COOP (PROOUT), +10 PAW based schemes


 Dipole corrections
   LMONO  =      F    monopole corrections only (constant potential shift)
   LDIPOL =      F    correct potential (dipole corrections)
   IDIPOL =      0    1-x, 2-y, 3-z, 4-all directions 
   EPSILON=  1.0000000 bulk dielectric constant

 Exchange correlation treatment:
   GGA     =    --    GGA type
   LEXCH   =     8    internal setting for exchange type
   LIBXC   =     F    Libxc                    
   VOSKOWN =     0    Vosko Wilk Nusair interpolation
   LHFCALC =     F    Hartree Fock is set to
   LHFONE  =     F    Hartree Fock one center treatment
   AEXX    =    0.0000 exact exchange contribution

 Linear response parameters
   LEPSILON=     F    determine dielectric tensor
   LRPA    =     F    only Hartree local field effects (RPA)
   LNABLA  =     F    use nabla operator in PAW spheres
   LVEL    =     F    velocity operator in full k-point grid
   CSHIFT  =0.1000    complex shift for real part using Kramers Kronig
   OMEGAMAX=  -1.0    maximum frequency
   DEG_THRESHOLD= 0.2000000E-02 threshold for treating states as degnerate
   RTIME   =   -0.100 relaxation time in fs
  (WPLASMAI=    0.000 imaginary part of plasma frequency in eV, 0.658/RTIME)
   DFIELD  = 0.0000000 0.0000000 0.0000000 field for delta impulse in time
 
  Optional k-point grid parameters
   LKPOINTS_OPT  =     F    use optional k-point grid
   KPOINTS_OPT_MODE=     1    mode for optional k-point grid
 
 Orbital magnetization related:
   ORBITALMAG=     F  switch on orbital magnetization
   LCHIMAG   =     F  perturbation theory with respect to B field
   DQ        =  0.001000  dq finite difference perturbation B field
   LLRAUG    =     F  two centre corrections for induced B field



--------------------------------------------------------------------------------------------------------


 Static calculation
 charge density and potential will be updated during run
 non-spin polarized calculation
 Variant of blocked Davidson
 Davidson routine will perform the subspace rotation
 perform sub-space diagonalisation
    after iterative eigenvector-optimisation
 modified Broyden-mixing scheme, WC =      100.0
 initial mixing is a Kerker type mixing with AMIX =  0.4000 and BMIX =      1.0000
 Hartree-type preconditioning will be used
 using additional bands            7
 real space projection scheme for non local part
 use partial core corrections
 calculate Harris-corrections to forces 
   (improved forces if not selfconsistent)
 use gradient corrections 
 use of overlap-Matrix (Vanderbilt PP)
 Methfessel and Paxton  Order N= 1 SIGMA  =   0.10


--------------------------------------------------------------------------------------------------------


  energy-cutoff  :      520.00
  volume of cell :       48.77
      direct lattice vectors                 reciprocal lattice vectors
     3.653500087  0.000000000  0.000000000     0.273710134 -0.000000000  0.000000000
     0.000000000  3.653500087  0.000000000     0.000000000  0.273710134  0.000000000
     0.000000000  0.000000000  3.653500087    -0.000000000 -0.000000000  0.273710134

  length of vectors
     3.653500087  3.653500087  3.653500087     0.273710134  0.273710134  0.273710134


 
 k-points in units of 2pi/SCALE and weight: read from INCAR                         
   0.00000000  0.00000000  0.00000000       0.001
   0.03345346 -0.00000000  0.00000000       0.008
   0.06690692 -0.00000000  0.00000000       0.008
   0.10036038 -0.00000000  0.00000000       0.008
   0.13381384 -0.00000000  0.00000000       0.008
   0.03345346  0.03345346  0.00000000       0.016
   0.06690692  0.03345346  0.00000000       0.033
   0.10036038  0.03345346  0.00000000       0.033
   0.13381384  0.03345346  0.00000000       0.033
   0.06690692  0.06690692  0.00000000       0.016
   0.10036038  0.06690692  0.00000000       0.033
   0.13381384  0.06690692  0.00000000       0.033
   0.10036038  0.10036038  0.00000000       0.016
   0.13381384  0.10036038  0.00000000       0.033
   0.13381384  0.13381384  0.00000000       0.016
   0.03345346  0.03345346  0.03345346       0.011
   0.06690692  0.03345346  0.03345346       0.033
   0.10036038  0.03345346  0.03345346       0.033
   0.13381384  0.03345346  0.03345346       0.033
   0.06690692  0.06690692  0.03345346       0.033
   0.10036038  0.06690692  0.03345346       0.066
   0.13381384  0.06690692  0.03345346       0.066
   0.10036038  0.10036038  0.03345346       0.033
   0.13381384  0.10036038  0.03345346       0.066
   0.13381384  0.13381384  0.03345346       0.033
   0.06690692  0.06690692  0.06690692       0.011
   0.10036038  0.06690692  0.06690692       0.033
   0.13381384  0.06690692  0.06690692       0.033
   0.10036038  0.10036038  0.06690692       0.033
   0.13381384  0.10036038  0.06690692       0.066
   0.13381384  0.13381384  0.06690692       0.033
   0.10036038  0.10036038  0.10036038       0.011
   0.13381384  0.10036038  0.10036038       0.033
   0.13381384  0.13381384  0.10036038       0.033
   0.13381384  0.13381384  0.13381384       0.011
 
 k-points in reciprocal lattice and weights: read from INCAR                         
   0.00000000  0.00000000  0.00000000       0.001
   0.11111111  0.00000000  0.00000000       0.008
   0.22222222 -0.00000000  0.00000000       0.008
   0.33333333  0.00000000  0.00000000       0.008
   0.44444444 -0.00000000  0.00000000       0.008
   0.11111111  0.11111111  0.00000000       0.016
   0.22222222  0.11111111  0.00000000       0.033
   0.33333333  0.11111111  0.00000000       0.033
   0.44444444  0.11111111  0.00000000       0.033
   0.22222222  0.22222222  0.00000000       0.016
   0.33333333  0.22222222  0.00000000       0.033
   0.44444444  0.22222222  0.00000000       0.033
   0.33333333  0.33333333  0.00000000       0.016
   0.44444444  0.33333333  0.00000000       0.033
   0.44444444  0.44444444  0.00000000       0.016
   0.11111111  0.11111111  0.11111111       0.011
   0.22222222  0.11111111  0.11111111       0.033
   0.33333333  0.11111111  0.11111111       0.033
   0.44444444  0.11111111  0.11111111       0.033
   0.22222222  0.22222222  0.11111111       0.033
   0.33333333  0.22222222  0.11111111       0.066
   0.44444444  0.22222222  0.11111111       0.066
   0.33333333  0.33333333  0.11111111       0.033
   0.44444444  0.33333333  0.11111111       0.066
   0.44444444  0.44444444  0.11111111       0.033
   0.22222222  0.22222222  0.22222222       0.011
   0.33333333  0.22222222  0.22222222       0.033
   0.44444444  0.22222222  0.22222222       0.033
   0.33333333  0.33333333  0.22222222       0.033
   0.44444444  0.33333333  0.22222222       0.066
   0.44444444  0.44444444  0.22222222       0.033
   0.33333333  0.33333333  0.33333333       0.011
   0.44444444  0.33333333  0.33333333       0.033
   0.44444444  0.44444444  0.33333333       0.033
   0.44444444  0.44444444  0.44444444       0.011
 
 position of ions in fractional coordinates (direct lattice) 
   0.00000000  0.00000000  0.00000000
   0.50000000  0.50000000  0.50000000
 
 position of ions in cartesian coordinates  (Angst):
   0.00000000  0.00000000  0.00000000
   1.82675004  1.82675004  1.82675004
 


--------------------------------------------------------------------------------------------------------


 k-point   1 :   0.0000 0.0000 0.0000  plane waves:    1357
 k-point   2 :   0.1111 0.0000 0.0000  plane waves:    1329
 k-point   3 :   0.2222-0.0000 0.0000  plane waves:    1306
 k-point   4 :   0.3333 0.0000 0.0000  plane waves:    1310
 k-point   5 :   0.4444-0.0000 0.0000  plane waves:    1310
 k-point   6 :   0.1111 0.1111 0.0000  plane waves:    1315
 k-point   7 :   0.2222 0.1111 0.0000  plane waves:    1309
 k-point   8 :   0.3333 0.1111 0.0000  plane waves:    1316
 k-point   9 :   0.4444 0.1111 0.0000  plane waves:    1313
 k-point  10 :   0.2222 0.2222 0.0000  plane waves:    1314
 k-point  11 :   0.3333 0.2222 0.0000  plane waves:    1316
 k-point  12 :   0.4444 0.2222 0.0000  plane waves:    1315
 k-point  13 :   0.3333 0.3333 0.0000  plane waves:    1312
 k-point  14 :   0.4444 0.3333 0.0000  plane waves:    1313
 k-point  15 :   0.4444 0.4444 0.0000  plane waves:    1320
 k-point  16 :   0.1111 0.1111 0.1111  plane waves:    1313
 k-point  17 :   0.2222 0.1111 0.1111  plane waves:    1305
 k-point  18 :   0.3333 0.1111 0.1111  plane waves:    1317
 k-point  19 :   0.4444 0.1111 0.1111  plane waves:    1311
 k-point  20 :   0.2222 0.2222 0.1111  plane waves:    1314
 k-point  21 :   0.3333 0.2222 0.1111  plane waves:    1317
 k-point  22 :   0.4444 0.2222 0.1111  plane waves:    1307
 k-point  23 :   0.3333 0.3333 0.1111  plane waves:    1313
 k-point  24 :   0.4444 0.3333 0.1111  plane waves:    1318
 k-point  25 :   0.4444 0.4444 0.1111  plane waves:    1308
 k-point  26 :   0.2222 0.2222 0.2222  plane waves:    1310
 k-point  27 :   0.3333 0.2222 0.2222  plane waves:    1310
 k-point  28 :   0.4444 0.2222 0.2222  plane waves:    1307
 k-point  29 :   0.3333 0.3333 0.2222  plane waves:    1303
 k-point  30 :   0.4444 0.3333 0.2222  plane waves:    1311
 k-point  31 :   0.4444 0.4444 0.2222  plane waves:    1316
 k-point  32 :   0.3333 0.3333 0.3333  plane waves:    1319
 k-point  33 :   0.4444 0.3333 0.3333  plane waves:    1321
 k-point  34 :   0.4444 0.4444 0.3333  plane waves:    1322
 k-point  35 :   0.4444 0.4444 0.4444  plane waves:    1343

 maximum and minimum number of plane-waves per node :        97       68

 maximum number of plane-waves:      1357
 maximum index in each direction: 
   IXMAX=    6   IYMAX=    6   IZMAX=    6
   IXMIN=   -7   IYMIN=   -7   IZMIN=   -7


 real space projection operators:
  total allocation   :       2003.34 KBytes
  max/ min on nodes  :        163.69         61.45


 parallel 3D FFT for wavefunctions:
    minimum data exchange during FFTs selected (reduces bandwidth)
 parallel 3D FFT for charge:
    minimum data exchange during FFTs selected (reduces bandwidth)


 total amount of memory used by VASP MPI-rank0    30972. kBytes
=======================================================================

   base      :      30000. kBytes
   nonlr-proj:        401. kBytes
   fftplans  :        168. kBytes
   grid      :        217. kBytes
   one-center:         15. kBytes
   wavefun   :        171. kBytes
 
     INWAV:  cpu time      0.0001: real time      0.0001
 Broyden mixing: mesh for mixing (old mesh)
   NGX = 13   NGY = 13   NGZ = 13
  (NGX  = 56   NGY  = 56   NGZ  = 56)
  gives a total of   2197 points

 initial charge density was supplied:
 charge density of overlapping atoms calculated
 number of electron      22.0000000 magnetization 
 keeping initial charge density in first step


--------------------------------------------------------------------------------------------------------


 Maximum index for non-local projection operator          437
 Maximum index for augmentation-charges         1009 (set IRDMAX)


--------------------------------------------------------------------------------------------------------


 First call to EWALD:  gamma=   0.485
 Maximum number of real-space cells 3x 3x 3
 Maximum number of reciprocal cells 3x 3x 3

    FEWALD:  cpu time      0.0018: real time      0.0020


--------------------------------------- Iteration      1(   1)  ---------------------------------------


    POTLOK:  cpu time      0.0098: real time      0.0147
    SETDIJ:  cpu time      0.1166: real time      0.1191
     EDDAV:  cpu time      0.2979: real time      0.3465
       DOS:  cpu time      0.0034: real time      0.0058
    --------------------------------------------
      LOOP:  cpu time      0.4278: real time      0.4862

 eigenvalue-minimisations  :  1260
 total energy-change (2. order) : 0.1322473E+03  (-0.1263591E+04)
 number of electron      22.0000000 magnetization 
 augmentation part       22.0000000 magnetization 

 Free energy of the ion-electron system (eV)
  ---------------------------------------------------
  alpha Z        PSCENC =       188.03874502
  Ewald energy   TEWEN  =     -1735.57041916
  -Hartree energ DENC   =      -323.79744452
  -exchange      EXHF   =         0.00000000
  -V(xc)+E(xc)   XCENC  =        44.83873792
  PAW double counting   =      1641.89683898    -1608.88133722
  entropy T*S    EENTRO =        -0.00243283
  eigenvalues    EBANDS =      -168.66893404
  atomic energy  EATOM  =      2094.39351137
  Solvation  Ediel_sol  =         0.00000000
  ---------------------------------------------------
  free energy    TOTEN  =       132.24726552 eV

  energy without entropy =      132.24969835  energy(sigma->0) =      132.24807647


--------------------------------------------------------------------------------------------------------




--------------------------------------- Iteration      1(   2)  ---------------------------------------


     EDDAV:  cpu time      0.2225: real time      0.2349
       DOS:  cpu time      0.0006: real time      0.0006
    --------------------------------------------
      LOOP:  cpu time      0.2231: real time      0.2355

 eigenvalue-minimisations  :  1506
 total energy-change (2. order) :-0.1526315E+03  (-0.1482169E+03)
 number of electron      22.0000000 magnetization 
 augmentation part       22.0000000 magnetization 

 Free energy of the ion-electron system (eV)
  ---------------------------------------------------
  alpha Z        PSCENC =       188.03874502
  Ewald energy   TEWEN  =     -1735.57041916
  -Hartree energ DENC   =      -323.79744452
  -exchange      EXHF   =         0.00000000
  -V(xc)+E(xc)   XCENC  =        44.83873792
  PAW double counting   =      1641.89683898    -1608.88133722
  entropy T*S    EENTRO =        -0.00124693
  eigenvalues    EBANDS =      -321.30159773
  atomic energy  EATOM  =      2094.39351137
  Solvation  Ediel_sol  =         0.00000000
  ---------------------------------------------------
  free energy    TOTEN  =       -20.38421226 eV

  energy without entropy =      -20.38296533  energy(sigma->0) =      -20.38379661


--------------------------------------------------------------------------------------------------------




--------------------------------------- Iteration      1(   3)  ---------------------------------------


     EDDAV:  cpu time      0.2244: real time      0.2397
       DOS:  cpu time      0.0006: real time      0.0006
    --------------------------------------------
      LOOP:  cpu time      0.2249: real time      0.2403

 eigenvalue-minimisations  :  1596
 total energy-change (2. order) :-0.3167224E+01  (-0.3101876E+01)
 number of electron      22.0000000 magnetization 
 augmentation part       22.0000000 magnetization 

 Free energy of the ion-electron system (eV)
  ---------------------------------------------------
  alpha Z        PSCENC =       188.03874502
  Ewald energy   TEWEN  =     -1735.57041916
  -Hartree energ DENC   =      -323.79744452
  -exchange      EXHF   =         0.00000000
  -V(xc)+E(xc)   XCENC  =        44.83873792
  PAW double counting   =      1641.89683898    -1608.88133722
  entropy T*S    EENTRO =        -0.00264457
  eigenvalues    EBANDS =      -324.46742422
  atomic energy  EATOM  =      2094.39351137
  Solvation  Ediel_sol  =         0.00000000
  ---------------------------------------------------
  free energy    TOTEN  =       -23.55143640 eV

  energy without entropy =      -23.54879183  energy(sigma->0) =      -23.55055487


--------------------------------------------------------------------------------------------------------




--------------------------------------- Iteration      1(   4)  ---------------------------------------


     EDDAV:  cpu time      0.2114: real time      0.2252
       DOS:  cpu time      0.0006: real time      0.0006
    --------------------------------------------
      LOOP:  cpu time      0.2119: real time      0.2258

 eigenvalue-minimisations  :  1380
 total energy-change (2. order) :-0.3706213E-01  (-0.3701861E-01)
 number of electron      22.0000000 magnetization 
 augmentation part       22.0000000 magnetization 

 Free energy of the ion-electron system (eV)
  ---------------------------------------------------
  alpha Z        PSCENC =       188.03874502
  Ewald energy   TEWEN  =     -1735.57041916
  -Hartree energ DENC   =      -323.79744452
  -exchange      EXHF   =         0.00000000
  -V(xc)+E(xc)   XCENC  =        44.83873792
  PAW double counting   =      1641.89683898    -1608.88133722
  entropy T*S    EENTRO =        -0.00282076
  eigenvalues    EBANDS =      -324.50431017
  atomic energy  EATOM  =      2094.39351137
  Solvation  Ediel_sol  =         0.00000000
  ---------------------------------------------------
  free energy    TOTEN  =       -23.58849853 eV

  energy without entropy =      -23.58567777  energy(sigma->0) =      -23.58755828


--------------------------------------------------------------------------------------------------------




--------------------------------------- Iteration      1(   5)  ---------------------------------------


     EDDAV:  cpu time      0.2313: real time      0.2419
       DOS:  cpu time      0.0005: real time      0.0005
    CHARGE:  cpu time      0.0156: real time      0.0199
    MIXING:  cpu time      0.0028: real time      0.0059
    --------------------------------------------
      LOOP:  cpu time      0.2503: real time      0.2682

 eigenvalue-minimisations  :  1560
 total energy-change (2. order) :-0.4157111E-03  (-0.4155946E-03)
 number of electron      22.0000003 magnetization 
 augmentation part        6.4686227 magnetization 

 Broyden mixing:
  rms(total) = 0.11511E+01    rms(broyden)= 0.11511E+01
  rms(prec ) = 0.20096E+01
  weight for this iteration     100.00

 Free energy of the ion-electron system (eV)
  ---------------------------------------------------
  alpha Z        PSCENC =       188.03874502
  Ewald energy   TEWEN  =     -1735.57041916
  -Hartree energ DENC   =      -323.79744452
  -exchange      EXHF   =         0.00000000
  -V(xc)+E(xc)   XCENC  =        44.83873792
  PAW double counting   =      1641.89683898    -1608.88133722
  entropy T*S    EENTRO =        -0.00282467
  eigenvalues    EBANDS =      -324.50472197
  atomic energy  EATOM  =      2094.39351137
  Solvation  Ediel_sol  =         0.00000000
  ---------------------------------------------------
  free energy    TOTEN  =       -23.58891424 eV

  energy without entropy =      -23.58608957  energy(sigma->0) =      -23.58797269


--------------------------------------------------------------------------------------------------------




--------------------------------------- Iteration      1(   6)  ---------------------------------------


    POTLOK:  cpu time      0.0053: real time      0.0183
    SETDIJ:  cpu time      0.1121: real time      0.1124
     EDDAV:  cpu time      0.2028: real time      0.2033
       DOS:  cpu time      0.0006: real time      0.0006
    CHARGE:  cpu time      0.0089: real time      0.0089
    MIXING:  cpu time      0.0009: real time      0.0019
    --------------------------------------------
      LOOP:  cpu time      0.3306: real time      0.3454

 eigenvalue-minimisations  :  1422
 total energy-change (2. order) : 0.1236760E+01  (-0.1715019E+00)
 number of electron      22.0000003 magnetization 
 augmentation part        6.6236323 magnetization 

 Broyden mixing:
  rms(total) = 0.45349E+00    rms(broyden)= 0.45349E+00
  rms(prec ) = 0.84290E+00
  weight for this iteration     100.00

 eigenvalues of (default mixing * dielectric matrix)
  average eigenvalue GAMMA=   1.6228
  1.6228

 Free energy of the ion-electron system (eV)
  ---------------------------------------------------
  alpha Z        PSCENC =       188.03874502
  Ewald energy   TEWEN  =     -1735.57041916
  -Hartree energ DENC   =      -299.89806122
  -exchange      EXHF   =         0.00000000
  -V(xc)+E(xc)   XCENC  =        43.70876966
  PAW double counting   =      1894.11042031    -1863.61422439
  entropy T*S    EENTRO =        -0.00254181
  eigenvalues    EBANDS =      -343.51835403
  atomic energy  EATOM  =      2094.39351137
  Solvation  Ediel_sol  =         0.00000000
  ---------------------------------------------------
  free energy    TOTEN  =       -22.35215425 eV

  energy without entropy =      -22.34961244  energy(sigma->0) =      -22.35130698


--------------------------------------------------------------------------------------------------------




--------------------------------------- Iteration      1(   7)  ---------------------------------------


    POTLOK:  cpu time      0.0050: real time      0.0175
    SETDIJ:  cpu time      0.1084: real time      0.1113
     EDDAV:  cpu time      0.2103: real time      0.2139
       DOS:  cpu time      0.0006: real time      0.0006
    CHARGE:  cpu time      0.0088: real time      0.0088
    MIXING:  cpu time      0.0004: real time      0.0008
    --------------------------------------------
      LOOP:  cpu time      0.3334: real time      0.3528

 eigenvalue-minimisations  :  1488
 total energy-change (2. order) : 0.2732972E+00  (-0.9185542E-01)
 number of electron      22.0000004 magnetization 
 augmentation part        6.7334700 magnetization 

 Broyden mixing:
  rms(total) = 0.70962E-01    rms(broyden)= 0.70962E-01
  rms(prec ) = 0.12518E+00
  weight for this iteration     100.00

 eigenvalues of (default mixing * dielectric matrix)
  average eigenvalue GAMMA=   2.0761
  1.6732  2.4791

 Free energy of the ion-electron system (eV)
  ---------------------------------------------------
  alpha Z        PSCENC =       188.03874502
  Ewald energy   TEWEN  =     -1735.57041916
  -Hartree energ DENC   =      -283.92178967
  -exchange      EXHF   =         0.00000000
  -V(xc)+E(xc)   XCENC  =        42.97830568
  PAW double counting   =      2111.95545032    -2083.26735833
  entropy T*S    EENTRO =        -0.00178503
  eigenvalues    EBANDS =      -356.68351726
  atomic energy  EATOM  =      2094.39351137
  Solvation  Ediel_sol  =         0.00000000
  ---------------------------------------------------
  free energy    TOTEN  =       -22.07885707 eV

  energy without entropy =      -22.07707203  energy(sigma->0) =      -22.07826206


--------------------------------------------------------------------------------------------------------




--------------------------------------- Iteration      1(   8)  ---------------------------------------


    POTLOK:  cpu time      0.0054: real time      0.0189
    SETDIJ:  cpu time      0.1094: real time      0.1116
     EDDAV:  cpu time      0.2021: real time      0.2026
       DOS:  cpu time      0.0007: real time      0.0007
    CHARGE:  cpu time      0.0091: real time      0.0091
    MIXING:  cpu time      0.0002: real time      0.0002
    --------------------------------------------
      LOOP:  cpu time      0.3269: real time      0.3431

 eigenvalue-minimisations  :  1440
 total energy-change (2. order) : 0.2525865E-02  (-0.1003123E-02)
 number of electron      22.0000004 magnetization 
 augmentation part        6.7342759 magnetization 

 Broyden mixing:
  rms(total) = 0.75444E-02    rms(broyden)= 0.75436E-02
  rms(prec ) = 0.14369E-01
  weight for this iteration     100.00

 eigenvalues of (default mixing * dielectric matrix)
  average eigenvalue GAMMA=   1.7654
  1.0257  1.6790  2.5915

 Free energy of the ion-electron system (eV)
  ---------------------------------------------------
  alpha Z        PSCENC =       188.03874502
  Ewald energy   TEWEN  =     -1735.57041916
  -Hartree energ DENC   =      -283.33594175
  -exchange      EXHF   =         0.00000000
  -V(xc)+E(xc)   XCENC  =        42.96792419
  PAW double counting   =      2161.51447465    -2133.08589425
  entropy T*S    EENTRO =        -0.00188862
  eigenvalues    EBANDS =      -356.99684266
  atomic energy  EATOM  =      2094.39351137
  Solvation  Ediel_sol  =         0.00000000
  ---------------------------------------------------
  free energy    TOTEN  =       -22.07633120 eV

  energy without entropy =      -22.07444259  energy(sigma->0) =      -22.07570166


--------------------------------------------------------------------------------------------------------




--------------------------------------- Iteration      1(   9)  ---------------------------------------


    POTLOK:  cpu time      0.0057: real time      0.0178
    SETDIJ:  cpu time      0.1094: real time      0.1115
     EDDAV:  cpu time      0.1952: real time      0.1962
       DOS:  cpu time      0.0005: real time      0.0005
    CHARGE:  cpu time      0.0090: real time      0.0091
    MIXING:  cpu time      0.0003: real time      0.0006
    --------------------------------------------
      LOOP:  cpu time      0.3203: real time      0.3357

 eigenvalue-minimisations  :  1422
 total energy-change (2. order) : 0.8972487E-04  (-0.2253940E-04)
 number of electron      22.0000004 magnetization 
 augmentation part        6.7329834 magnetization 

 Broyden mixing:
  rms(total) = 0.34973E-02    rms(broyden)= 0.34972E-02
  rms(prec ) = 0.45150E-02
  weight for this iteration     100.00

 eigenvalues of (default mixing * dielectric matrix)
  average eigenvalue GAMMA=   2.0730
  0.9819  1.6704  3.0482  2.5913

 Free energy of the ion-electron system (eV)
  ---------------------------------------------------
  alpha Z        PSCENC =       188.03874502
  Ewald energy   TEWEN  =     -1735.57041916
  -Hartree energ DENC   =      -283.57912129
  -exchange      EXHF   =         0.00000000
  -V(xc)+E(xc)   XCENC  =        42.97866039
  PAW double counting   =      2162.77572453    -2134.29412144
  entropy T*S    EENTRO =        -0.00186757
  eigenvalues    EBANDS =      -356.81735332
  atomic energy  EATOM  =      2094.39351137
  Solvation  Ediel_sol  =         0.00000000
  ---------------------------------------------------
  free energy    TOTEN  =       -22.07624148 eV

  energy without entropy =      -22.07437391  energy(sigma->0) =      -22.07561896


--------------------------------------------------------------------------------------------------------




--------------------------------------- Iteration      1(  10)  ---------------------------------------


    POTLOK:  cpu time      0.0047: real time      0.0175
    SETDIJ:  cpu time      0.1111: real time      0.1114
     EDDAV:  cpu time      0.2011: real time      0.2016
       DOS:  cpu time      0.0006: real time      0.0006
    CHARGE:  cpu time      0.0092: real time      0.0093
    MIXING:  cpu time      0.0003: real time      0.0003
    --------------------------------------------
      LOOP:  cpu time      0.3270: real time      0.3406

 eigenvalue-minimisations  :  1134
 total energy-change (2. order) : 0.1222154E-04  (-0.1286907E-05)
 number of electron      22.0000004 magnetization 
 augmentation part        6.7329731 magnetization 

 Broyden mixing:
  rms(total) = 0.54192E-03    rms(broyden)= 0.54190E-03
  rms(prec ) = 0.99103E-03
  weight for this iteration     100.00

 eigenvalues of (default mixing * dielectric matrix)
  average eigenvalue GAMMA=   1.7448
  2.6930  2.4430  1.6785  0.9793  0.9304

 Free energy of the ion-electron system (eV)
  ---------------------------------------------------
  alpha Z        PSCENC =       188.03874502
  Ewald energy   TEWEN  =     -1735.57041916
  -Hartree energ DENC   =      -283.64680139
  -exchange      EXHF   =         0.00000000
  -V(xc)+E(xc)   XCENC  =        42.98180376
  PAW double counting   =      2172.25270637    -2143.71943112
  entropy T*S    EENTRO =        -0.00186360
  eigenvalues    EBANDS =      -356.80448050
  atomic energy  EATOM  =      2094.39351137
  Solvation  Ediel_sol  =         0.00000000
  ---------------------------------------------------
  free energy    TOTEN  =       -22.07622926 eV

  energy without entropy =      -22.07436566  energy(sigma->0) =      -22.07560806


--------------------------------------------------------------------------------------------------------




--------------------------------------- Iteration      1(  11)  ---------------------------------------


    POTLOK:  cpu time      0.0053: real time      0.0180
    SETDIJ:  cpu time      0.1119: real time      0.1122
     EDDAV:  cpu time      0.1403: real time      0.1407
       DOS:  cpu time      0.0006: real time      0.0006
    --------------------------------------------
      LOOP:  cpu time      0.2580: real time      0.2715

 eigenvalue-minimisations  :   714
 total energy-change (2. order) :-0.7240569E-06  (-0.8359163E-07)
 number of electron      22.0000004 magnetization 
 augmentation part        6.7329731 magnetization 

 Free energy of the ion-electron system (eV)
  ---------------------------------------------------
  alpha Z        PSCENC =       188.03874502
  Ewald energy   TEWEN  =     -1735.57041916
  -Hartree energ DENC   =      -283.62795463
  -exchange      EXHF   =         0.00000000
  -V(xc)+E(xc)   XCENC  =        42.98096631
  PAW double counting   =      2171.42488197    -2142.89798184
  entropy T*S    EENTRO =        -0.00186506
  eigenvalues    EBANDS =      -356.81611396
  atomic energy  EATOM  =      2094.39351137
  Solvation  Ediel_sol  =         0.00000000
  ---------------------------------------------------
  free energy    TOTEN  =       -22.07622998 eV

  energy without entropy =      -22.07436492  energy(sigma->0) =      -22.07560829


--------------------------------------------------------------------------------------------------------




 average (electrostatic) potential at core
  the test charge radii are     1.1760
  (the norm of the test charge is              1.0000)
       1 -39.7381       2 -39.7381
 
 
 
 E-fermi :   3.2712     XC(G=0): -11.1514     alpha+bet : -9.8236

 Fermi energy:         3.2712033782

 k-point     1 :       0.0000    0.0000    0.0000
  band No.  band energies     occupation 
      1     -31.2522      2.00000
      2     -31.2522      2.00000
      3     -31.2522      2.00000
      4     -30.9549      2.00000
      5     -30.9549      2.00000
      6     -30.9549      2.00000
      7      -3.4119      2.00000
      8       0.9315      2.00000
      9       0.9315      2.00000
     10       3.8981     -0.00000
     11       3.8981     -0.00000
     12       3.8981     -0.00000
     13       6.2034      0.00000
     14       6.2034      0.00000
     15       7.8937      0.00000
     16       7.8937      0.00000
     17       7.8937      0.00000
     18       9.6755      0.00000

 k-point     2 :       0.1111    0.0000    0.0000
  band No.  band energies     occupation 
      1     -31.2505      2.00000
      2     -31.2429      2.00000
      3     -31.2429      2.00000
      4     -30.9714      2.00000
      5     -30.9634      2.00000
      6     -30.9634      2.00000
      7      -3.2166      2.00000
      8       1.0366      2.00000
      9       1.0408      2.00000
     10       3.8752     -0.00000
     11       3.8752     -0.00000
     12       3.9900     -0.00000
     13       5.9449     -0.00000
     14       6.2947      0.00000
     15       7.0958      0.00000
     16       7.0958      0.00000
     17       7.7270      0.00000
     18       8.8147      0.00000

 k-point     3 :       0.2222   -0.0000    0.0000
  band No.  band energies     occupation 
      1     -31.2430      2.00000
      2     -31.2161      2.00000
      3     -31.2161      2.00000
      4     -31.0163      2.00000
      5     -30.9883      2.00000
      6     -30.9883      2.00000
      7      -2.6491      2.00000
      8       1.2315      2.00000
      9       1.3652      2.00000
     10       3.8417     -0.00000
     11       3.8417     -0.00000
     12       4.2611     -0.00000
     13       5.2698     -0.00000
     14       6.0069      0.00000
     15       6.0069      0.00000
     16       6.5270      0.00000
     17       7.2729      0.00000
     18       7.4306      0.00000

 k-point     4 :       0.3333    0.0000    0.0000
  band No.  band energies     occupation 
      1     -31.2246      2.00000
      2     -31.1754      2.00000
      3     -31.1754      2.00000
      4     -31.0771      2.00000
      5     -31.0267      2.00000
      6     -31.0267      2.00000
      7      -1.7668      2.00000
      8       1.1324      2.00000
      9       1.8933      2.00000
     10       3.8783     -0.00000
     11       3.8783     -0.00000
     12       4.3814     -0.00000
     13       4.6971     -0.00000
     14       5.1141     -0.00000
     15       5.1141     -0.00000
     16       6.5700      0.00000
     17       6.6388      0.00000
     18       6.7596      0.00000

 k-point     5 :       0.4444   -0.0000    0.0000
  band No.  band energies     occupation 
      1     -31.1901      2.00000
      2     -31.1390      2.00000
      3     -31.1262      2.00000
      4     -31.1262      2.00000
      5     -31.0745      2.00000
      6     -31.0745      2.00000
      7      -0.6775      2.00000
      8       0.4129      2.00000
      9       2.6028      2.00000
     10       3.4546     -0.02634
     11       4.0675     -0.00000
     12       4.0675     -0.00000
     13       4.4688     -0.00000
     14       4.4688     -0.00000
     15       5.2712     -0.00000
     16       5.9404     -0.00000
     17       6.5245      0.00000
     18       6.7665      0.00000

 k-point     6 :       0.1111    0.1111    0.0000
  band No.  band energies     occupation 
      1     -31.2650      2.00000
      2     -31.2340      2.00000
      3     -31.2182      2.00000
      4     -31.0040      2.00000
      5     -30.9714      2.00000
      6     -30.9547      2.00000
      7      -3.0263      2.00000
      8       1.1323      2.00000
      9       1.1557      2.00000
     10       3.6843     -0.00000
     11       3.8200     -0.00000
     12       4.2566     -0.00000
     13       5.9342     -0.00000
     14       6.2153      0.00000
     15       6.3285      0.00000
     16       6.3854      0.00000
     17       7.9566      0.00000
     18       9.5455      0.00000

 k-point     7 :       0.2222    0.1111    0.0000
  band No.  band energies     occupation 
      1     -31.2711      2.00000
      2     -31.2087      2.00000
      3     -31.1807      2.00000
      4     -31.0595      2.00000
      5     -30.9946      2.00000
      6     -30.9653      2.00000
      7      -2.4753      2.00000
      8       1.3225      2.00000
      9       1.4609      2.00000
     10       3.5302     -0.00153
     11       3.6970     -0.00000
     12       4.6636     -0.00000
     13       5.3520     -0.00000
     14       5.4193     -0.00000
     15       5.4752     -0.00000
     16       6.4250      0.00000
     17       7.7418      0.00000
     18       8.2536      0.00000

 k-point     8 :       0.3333    0.1111    0.0000
  band No.  band energies     occupation 
      1     -31.2618      2.00000
      2     -31.1704      2.00000
      3     -31.1352      2.00000
      4     -31.1244      2.00000
      5     -31.0306      2.00000
      6     -30.9944      2.00000
      7      -1.6236      2.00000
      8       1.1969      2.00000
      9       1.9365      2.00000
     10       3.4999     -0.00568
     11       3.5316     -0.00144
     12       4.6023     -0.00000
     13       4.8160     -0.00000
     14       4.8657     -0.00000
     15       5.1800     -0.00000
     16       6.6971      0.00000
     17       7.1036      0.00000
     18       7.1780      0.00000

 k-point     9 :       0.4444    0.1111    0.0000
  band No.  band energies     occupation 
      1     -31.2335      2.00000
      2     -31.1859      2.00000
      3     -31.1240      2.00000
      4     -31.0853      2.00000
      5     -31.0754      2.00000
      6     -31.0364      2.00000
      7      -0.5800      2.00000
      8       0.4682      2.00000
      9       2.5441      2.00000
     10       3.1575      2.06828
     11       3.6456     -0.00000
     12       4.0070     -0.00000
     13       4.5540     -0.00000
     14       4.6358     -0.00000
     15       5.7996     -0.00000
     16       6.4889      0.00000
     17       6.6792      0.00000
     18       6.7592      0.00000

 k-point    10 :       0.2222    0.2222    0.0000
  band No.  band energies     occupation 
      1     -31.2974      2.00000
      2     -31.1877      2.00000
      3     -31.1310      2.00000
      4     -31.1264      2.00000
      5     -31.0131      2.00000
      6     -30.9544      2.00000
      7      -1.9787      2.00000
      8       1.3839      2.00000
      9       1.8022      2.00000
     10       3.1966      1.95008
     11       3.4445     -0.03426
     12       4.5546     -0.00000
     13       4.6572     -0.00000
     14       5.2843     -0.00000
     15       5.7517     -0.00000
     16       6.2904      0.00000
     17       8.1200      0.00000
     18       9.0250      0.00000

 k-point    11 :       0.3333    0.2222    0.0000
  band No.  band energies     occupation 
      1     -31.3063      2.00000
      2     -31.1954      2.00000
      3     -31.1560      2.00000
      4     -31.0800      2.00000
      5     -31.0420      2.00000
      6     -30.9643      2.00000
      7      -1.2337      2.00000
      8       1.1393      2.00000
      9       2.2357      2.00000
     10       3.0224      2.00244
     11       3.2318      1.61351
     12       3.8290     -0.00000
     13       4.5929     -0.00000
     14       5.5393     -0.00000
     15       5.9708     -0.00000
     16       6.5387      0.00000
     17       7.9345      0.00000
     18       7.9417      0.00000

 k-point    12 :       0.4444    0.2222    0.0000
  band No.  band energies     occupation 
      1     -31.2922      2.00000
      2     -31.2539      2.00000
      3     -31.1179      2.00000
      4     -31.0783      2.00000
      5     -31.0321      2.00000
      6     -30.9918      2.00000
      7      -0.3600      2.00000
      8       0.4920      2.00000
      9       2.6619      2.00000
     10       3.0061      2.00115
     11       3.0554      2.00929
     12       3.3222      0.24865
     13       4.9923     -0.00000
     14       5.2775     -0.00000
     15       6.6916      0.00000
     16       6.7294      0.00000
     17       7.0233      0.00000
     18       7.3898      0.00000

 k-point    13 :       0.3333    0.3333    0.0000
  band No.  band energies     occupation 
      1     -31.3340      2.00000
      2     -31.2623      2.00000
      3     -31.1346      2.00000
      4     -31.0601      2.00000
      5     -31.0300      2.00000
      6     -30.9540      2.00000
      7      -0.7058      2.00000
      8       0.7993      2.00000
      9       2.7127      2.00000
     10       2.7777      2.00000
     11       3.1865      2.00212
     12       3.1964      1.95076
     13       4.8240     -0.00000
     14       5.9528     -0.00000
     15       6.4663      0.00000
     16       6.7946      0.00000
     17       8.0122      0.00000
     18       8.3132      0.00000

 k-point    14 :       0.4444    0.3333    0.0000
  band No.  band energies     occupation 
      1     -31.3371      2.00000
      2     -31.3123      2.00000
      3     -31.1092      2.00000
      4     -31.0833      2.00000
      5     -30.9898      2.00000
      6     -30.9633      2.00000
      7      -0.1635      2.00000
      8       0.3398      2.00000
      9       2.6268      2.00000
     10       2.7876      2.00000
     11       3.1982      1.93986
     12       3.2861      0.75169
     13       5.3964     -0.00000
     14       5.8475     -0.00000
     15       6.6734      0.00000
     16       7.1975      0.00000
     17       7.5582      0.00000
     18       8.1327      0.00000

 k-point    15 :       0.4444    0.4444    0.0000
  band No.  band energies     occupation 
      1     -31.3577      2.00000
      2     -31.3492      2.00000
      3     -31.0996      2.00000
      4     -31.0906      2.00000
      5     -30.9629      2.00000
      6     -30.9537      2.00000
      7      -0.0245      2.00000
      8       0.1346      2.00000
      9       2.4276      2.00000
     10       2.4811      2.00000
     11       3.7712     -0.00000
     12       3.7819     -0.00000
     13       5.7881     -0.00000
     14       6.0184      0.00000
     15       6.6493      0.00000
     16       6.9023      0.00000
     17       8.2110      0.00000
     18       8.4439      0.00000

 k-point    16 :       0.1111    0.1111    0.1111
  band No.  band energies     occupation 
      1     -31.2553      2.00000
      2     -31.2553      2.00000
      3     -31.1890      2.00000
      4     -31.0329      2.00000
      5     -30.9637      2.00000
      6     -30.9637      2.00000
      7      -2.8400      2.00000
      8       1.2495      2.00000
      9       1.2495      2.00000
     10       3.6251     -0.00001
     11       3.6251     -0.00001
     12       4.5266     -0.00000
     13       5.2693     -0.00000
     14       6.0529      0.00000
     15       6.0529      0.00000
     16       7.1708      0.00000
     17       7.1708      0.00000
     18      10.1665      0.00000

 k-point    17 :       0.2222    0.1111    0.1111
  band No.  band energies     occupation 
      1     -31.2715      2.00000
      2     -31.2274      2.00000
      3     -31.1480      2.00000
      4     -31.0885      2.00000
      5     -30.9896      2.00000
      6     -30.9666      2.00000
      7      -2.3017      2.00000
      8       1.4598      2.00000
      9       1.5230      2.00000
     10       3.4112     -0.06358
     11       3.4745     -0.01435
     12       4.3458     -0.00000
     13       5.0023     -0.00000
     14       5.6255     -0.00000
     15       6.1424      0.00000
     16       6.3482      0.00000
     17       7.1482      0.00000
     18       9.1508      0.00000

 k-point    18 :       0.3333    0.1111    0.1111
  band No.  band energies     occupation 
      1     -31.2716      2.00000
      2     -31.1851      2.00000
      3     -31.1517      2.00000
      4     -31.1036      2.00000
      5     -31.0298      2.00000
      6     -30.9859      2.00000
      7      -1.4746      2.00000
      8       1.3018      2.00000
      9       1.9483      2.00000
     10       3.2632      1.13528
     11       3.3509      0.02159
     12       3.8915     -0.00000
     13       5.1116     -0.00000
     14       5.3477     -0.00000
     15       5.5784     -0.00000
     16       6.6106      0.00000
     17       6.6498      0.00000
     18       8.1022      0.00000

 k-point    19 :       0.4444    0.1111    0.1111
  band No.  band energies     occupation 
      1     -31.2510      2.00000
      2     -31.2094      2.00000
      3     -31.1337      2.00000
      4     -31.0798      2.00000
      5     -31.0590      2.00000
      6     -31.0182      2.00000
      7      -0.4684      2.00000
      8       0.5481      2.00000
      9       2.4618      2.00000
     10       2.9393      2.00003
     11       3.4804     -0.01174
     12       3.7160     -0.00000
     13       4.7891     -0.00000
     14       4.8716     -0.00000
     15       6.1918      0.00000
     16       6.3836      0.00000
     17       6.7878      0.00000
     18       7.2448      0.00000

 k-point    20 :       0.2222    0.2222    0.1111
  band No.  band energies     occupation 
      1     -31.2867      2.00000
      2     -31.2164      2.00000
      3     -31.1459      2.00000
      4     -31.1029      2.00000
      5     -31.0053      2.00000
      6     -30.9643      2.00000
      7      -1.8068      2.00000
      8       1.5606      2.00000
      9       1.8488      2.00000
     10       3.1126      2.04743
     11       3.2353      1.56604
     12       3.5371     -0.00110
     13       5.6241     -0.00000
     14       5.6810     -0.00000
     15       5.8580     -0.00000
     16       6.2581      0.00000
     17       7.3227      0.00000
     18      10.0276      0.00000

 k-point    21 :       0.3333    0.2222    0.1111
  band No.  band energies     occupation 
      1     -31.2985      2.00000
      2     -31.2073      2.00000
      3     -31.1798      2.00000
      4     -31.0595      2.00000
      5     -31.0394      2.00000
      6     -30.9710      2.00000
      7      -1.0686      2.00000
      8       1.3086      2.00000
      9       2.1989      2.00000
     10       2.9136      2.00001
     11       3.0593      2.01067
     12       3.2812      0.83106
     13       5.2301     -0.00000
     14       5.6348     -0.00000
     15       6.3442      0.00000
     16       6.5297      0.00000
     17       7.0385      0.00000
     18       8.9915      0.00000

 k-point    22 :       0.4444    0.2222    0.1111
  band No.  band energies     occupation 
      1     -31.2902      2.00000
      2     -31.2586      2.00000
      3     -31.1329      2.00000
      4     -31.0839      2.00000
      5     -31.0210      2.00000
      6     -30.9906      2.00000
      7      -0.2102      2.00000
      8       0.6310      2.00000
      9       2.4984      2.00000
     10       2.7385      2.00000
     11       3.0786      2.02016
     12       3.2278      1.66335
     13       5.2291     -0.00000
     14       5.3817     -0.00000
     15       6.6145      0.00000
     16       6.6414      0.00000
     17       7.1783      0.00000
     18       8.0534      0.00000

 k-point    23 :       0.3333    0.3333    0.1111
  band No.  band energies     occupation 
      1     -31.3222      2.00000
      2     -31.2640      2.00000
      3     -31.1549      2.00000
      4     -31.0600      2.00000
      5     -31.0206      2.00000
      6     -30.9651      2.00000
      7      -0.5227      2.00000
      8       0.9701      2.00000
      9       2.6451      2.00000
     10       2.7388      2.00000
     11       2.8936      2.00000
     12       2.9935      2.00061
     13       5.2140     -0.00000
     14       6.0006     -0.00000
     15       6.4817      0.00000
     16       7.1707      0.00000
     17       7.2912      0.00000
     18       9.2604      0.00000

 k-point    24 :       0.4444    0.3333    0.1111
  band No.  band energies     occupation 
      1     -31.3269      2.00000
      2     -31.3068      2.00000
      3     -31.1221      2.00000
      4     -31.0887      2.00000
      5     -30.9908      2.00000
      6     -30.9718      2.00000
      7       0.0231      2.00000
      8       0.5155      2.00000
      9       2.5460      2.00000
     10       2.6327      2.00000
     11       3.1251      2.05869
     12       3.1317      2.06388
     13       5.5728     -0.00000
     14       5.9120     -0.00000
     15       6.6436      0.00000
     16       6.9203      0.00000
     17       7.9590      0.00000
     18       8.6852      0.00000

 k-point    25 :       0.4444    0.4444    0.1111
  band No.  band energies     occupation 
      1     -31.3453      2.00000
      2     -31.3384      2.00000
      3     -31.1085      2.00000
      4     -31.0967      2.00000
      5     -30.9720      2.00000
      6     -30.9656      2.00000
      7       0.1729      2.00000
      8       0.3255      2.00000
      9       2.3799      2.00000
     10       2.4205      2.00000
     11       3.5606     -0.00033
     12       3.6063     -0.00002
     13       5.8979     -0.00000
     14       6.0833      0.00000
     15       6.6620      0.00000
     16       6.8210      0.00000
     17       8.5762      0.00000
     18       8.8586      0.00000

 k-point    26 :       0.2222    0.2222    0.2222
  band No.  band energies     occupation 
      1     -31.2561      2.00000
      2     -31.2561      2.00000
      3     -31.1893      2.00000
      4     -31.0632      2.00000
      5     -30.9932      2.00000
      6     -30.9932      2.00000
      7      -1.3214      2.00000
      8       1.9748      2.00000
      9       1.9748      2.00000
     10       2.6502      2.00000
     11       2.9105      2.00000
     12       2.9105      2.00000
     13       6.1416      0.00000
     14       6.1416      0.00000
     15       6.3406      0.00000
     16       6.4618      0.00000
     17       6.4618      0.00000
     18       9.7391      0.00000

 k-point    27 :       0.3333    0.2222    0.2222
  band No.  band energies     occupation 
      1     -31.2833      2.00000
      2     -31.2364      2.00000
      3     -31.2094      2.00000
      4     -31.0378      2.00000
      5     -31.0297      2.00000
      6     -30.9876      2.00000
      7      -0.6158      2.00000
      8       1.6278      2.00000
      9       2.1429      2.00000
     10       2.6831      2.00000
     11       2.7481      2.00000
     12       2.7581      2.00000
     13       5.9032     -0.00000
     14       5.9406     -0.00000
     15       6.4855      0.00000
     16       6.5706      0.00000
     17       7.1361      0.00000
     18       9.7041      0.00000

 k-point    28 :       0.4444    0.2222    0.2222
  band No.  band energies     occupation 
      1     -31.2899      2.00000
      2     -31.2731      2.00000
      3     -31.1527      2.00000
      4     -31.0931      2.00000
      5     -31.0055      2.00000
      6     -30.9915      2.00000
      7       0.1651      2.00000
      8       0.9093      2.00000
      9       2.3145      2.00000
     10       2.4856      2.00000
     11       2.8507      2.00000
     12       2.9874      2.00045
     13       5.6812     -0.00000
     14       5.7387     -0.00000
     15       6.4996      0.00000
     16       6.6119      0.00000
     17       7.9895      0.00000
     18       8.9441      0.00000

 k-point    29 :       0.3333    0.3333    0.2222
  band No.  band energies     occupation 
      1     -31.2884      2.00000
      2     -31.2694      2.00000
      3     -31.1963      2.00000
      4     -31.0568      2.00000
      5     -31.0086      2.00000
      6     -30.9972      2.00000
      7      -0.0136      2.00000
      8       1.3837      2.00000
      9       2.4586      2.00000
     10       2.4900      2.00000
     11       2.6104      2.00000
     12       2.6260      2.00000
     13       5.9146     -0.00000
     14       6.2015      0.00000
     15       6.5019      0.00000
     16       6.7281      0.00000
     17       8.0049      0.00000
     18       9.5687      0.00000

 k-point    30 :       0.4444    0.3333    0.2222
  band No.  band energies     occupation 
      1     -31.2992      2.00000
      2     -31.2931      2.00000
      3     -31.1510      2.00000
      4     -31.1000      2.00000
      5     -30.9983      2.00000
      6     -30.9964      2.00000
      7       0.5365      2.00000
      8       0.9708      2.00000
      9       2.3814      2.00000
     10       2.3860      2.00000
     11       2.7597      2.00000
     12       2.9025      2.00000
     13       5.9896     -0.00000
     14       6.1385      0.00000
     15       6.6348      0.00000
     16       6.6675      0.00000
     17       8.8294      0.00000
     18       9.5998      0.00000

 k-point    31 :       0.4444    0.4444    0.2222
  band No.  band energies     occupation 
      1     -31.3095      2.00000
      2     -31.3080      2.00000
      3     -31.1316      2.00000
      4     -31.1113      2.00000
      5     -30.9999      2.00000
      6     -30.9986      2.00000
      7       0.7296      2.00000
      8       0.8525      2.00000
      9       2.2760      2.00000
     10       2.2988      2.00000
     11       3.0939      2.03101
     12       3.1983      1.93907
     13       6.1804      0.00000
     14       6.2816      0.00000
     15       6.6919      0.00000
     16       6.7381      0.00000
     17       9.4544      0.00000
     18       9.6341      0.00000

 k-point    32 :       0.3333    0.3333    0.3333
  band No.  band energies     occupation 
      1     -31.2763      2.00000
      2     -31.2370      2.00000
      3     -31.2370      2.00000
      4     -31.0468      2.00000
      5     -31.0468      2.00000
      6     -31.0068      2.00000
      7       0.6687      2.00000
      8       1.5664      2.00000
      9       2.3438      2.00000
     10       2.3438      2.00000
     11       2.4691      2.00000
     12       2.4691      2.00000
     13       6.4521      0.00000
     14       6.4521      0.00000
     15       6.4864      0.00000
     16       6.4864      0.00000
     17       8.9336      0.00000
     18       8.9519      0.00000

 k-point    33 :       0.4444    0.3333    0.3333
  band No.  band energies     occupation 
      1     -31.2776      2.00000
      2     -31.2655      2.00000
      3     -31.1743      2.00000
      4     -31.1083      2.00000
      5     -31.0313      2.00000
      6     -31.0158      2.00000
      7       1.1827      2.00000
      8       1.4070      2.00000
      9       2.2827      2.00000
     10       2.3331      2.00000
     11       2.4438      2.00000
     12       2.6639      2.00000
     13       6.3900      0.00000
     14       6.4325      0.00000
     15       6.6201      0.00000
     16       6.6556      0.00000
     17       9.0727      0.00000
     18       9.6467      0.00000

 k-point    34 :       0.4444    0.4444    0.3333
  band No.  band energies     occupation 
      1     -31.2647      2.00000
      2     -31.2549      2.00000
      3     -31.1603      2.00000
      4     -31.1236      2.00000
      5     -31.0528      2.00000
      6     -31.0392      2.00000
      7       1.5182      2.00000
      8       1.5318      2.00000
      9       2.2015      2.00000
     10       2.2587      2.00000
     11       2.6119      2.00000
     12       2.7602      2.00000
     13       6.5177      0.00000
     14       6.5510      0.00000
     15       6.7207      0.00000
     16       6.7216      0.00000
     17       8.6126      0.00000
     18       8.9568      0.00000

 k-point    35 :       0.4444    0.4444    0.4444
  band No.  band energies     occupation 
      1     -31.2210      2.00000
      2     -31.1884      2.00000
      3     -31.1884      2.00000
      4     -31.1182      2.00000
      5     -31.1182      2.00000
      6     -31.0852      2.00000
      7       1.9662      2.00000
      8       2.2355      2.00000
      9       2.2355      2.00000
     10       2.2386      2.00000
     11       2.4216      2.00000
     12       2.4216      2.00000
     13       6.7310      0.00000
     14       6.7310      0.00000
     15       6.7359      0.00000
     16       6.7359      0.00000
     17       7.9238      0.00000
     18       8.0742      0.00000


--------------------------------------------------------------------------------------------------------


 soft charge-density along one line, spin component           1
         0         1         2         3         4         5         6         7         8         9
 total charge-density along one line
 
 pseudopotential strength for first ion, spin component:           1
-33.152  -0.000  -0.000   8.866   0.000   0.000  -0.000  -0.000
 -0.000 -33.152  -0.000   0.000   8.866   0.000  -0.000  -0.000
 -0.000  -0.000 -33.152   0.000   0.000   8.866  -0.000  -0.000
  8.866   0.000   0.000   5.713   0.000  -0.000   0.000   0.000
  0.000   8.866   0.000   0.000   5.713  -0.000   0.000   0.000
  0.000   0.000   8.866  -0.000  -0.000   5.713   0.000   0.000
 -0.000  -0.000  -0.000   0.000   0.000   0.000  -7.080  -0.000
 -0.000  -0.000  -0.000   0.000   0.000   0.000  -0.000  -7.080
  0.000  -0.000   0.000  -0.000   0.000  -0.000   0.000  -0.000
 -0.000  -0.000  -0.000   0.000   0.000   0.000  -0.000  -0.000
  0.000  -0.000  -0.000  -0.000   0.000   0.000  -0.000   0.000
 -0.000  -0.000  -0.000   0.000   0.000   0.000  -8.647  -0.000
 -0.000  -0.000  -0.000   0.000   0.000   0.000  -0.000  -8.647
  0.000  -0.000   0.000  -0.000   0.000  -0.000   0.000  -0.000
 -0.000  -0.000  -0.000   0.000   0.000   0.000  -0.000  -0.000
  0.000  -0.000  -0.000  -0.000   0.000   0.000  -0.000   0.000
  0.000   0.000   0.000   0.000  -0.000   0.000   0.000   0.000
  0.000   0.000   0.000   0.000   0.000   0.000   0.000   0.000
 total augmentation occupancy for first ion, spin component:           1
  1.991   0.000   0.000  -0.033  -0.000  -0.000   0.000  -0.000  -0.000  -0.000  -0.000  -0.000   0.000  -0.000   0.000   0.000
  0.000   1.991   0.000  -0.000  -0.033  -0.000   0.000   0.000  -0.000   0.000   0.000   0.000   0.000   0.000   0.000   0.000
  0.000   0.000   1.991  -0.000  -0.000  -0.033   0.000  -0.000  -0.000   0.000   0.000  -0.000   0.000  -0.000   0.000  -0.000
 -0.033  -0.000  -0.000   0.112   0.000   0.000   0.000   0.000   0.000   0.000  -0.000   0.000   0.000  -0.000   0.000   0.000
 -0.000  -0.033  -0.000   0.000   0.112   0.000  -0.000   0.000   0.000  -0.000   0.000   0.000   0.000  -0.000   0.000  -0.000
 -0.000  -0.000  -0.033   0.000   0.000   0.112   0.000   0.000  -0.000   0.000   0.000   0.000   0.000   0.000   0.000   0.000
 -0.000  -0.000   0.000  -0.000  -0.000  -0.000   2.908   0.000  -0.000   0.000   0.000  -1.240  -0.000   0.000  -0.000  -0.000
 -0.000  -0.000   0.000   0.000  -0.000   0.000   0.000   2.908   0.000   0.000  -0.000  -0.000  -1.240  -0.000  -0.000   0.000
  0.000  -0.000   0.000  -0.000  -0.000   0.000  -0.000   0.000   2.529   0.000   0.000   0.000  -0.000  -1.164  -0.000  -0.000
  0.000  -0.000   0.000   0.000  -0.000   0.000   0.000   0.000   0.000   2.908   0.000  -0.000  -0.000  -0.000  -1.240  -0.000
 -0.000   0.000  -0.000  -0.000   0.000   0.000   0.000  -0.000   0.000   0.000   2.529  -0.000   0.000  -0.000  -0.000  -1.164
  0.000  -0.000  -0.000   0.000   0.000   0.000  -1.240  -0.000   0.000  -0.000  -0.000   0.551   0.000  -0.000   0.000   0.000
  0.000   0.000   0.000   0.000   0.000   0.000  -0.000  -1.240  -0.000  -0.000   0.000   0.000   0.551   0.000   0.000  -0.000
  0.000   0.000   0.000   0.000  -0.000  -0.000   0.000  -0.000  -1.164  -0.000  -0.000  -0.000   0.000   0.547   0.000   0.000
 -0.000  -0.000   0.000   0.000   0.000   0.000  -0.000  -0.000  -0.000  -1.240  -0.000   0.000   0.000   0.000   0.551   0.000
 -0.000   0.000   0.000   0.000  -0.000   0.000  -0.000   0.000  -0.000  -0.000  -1.164   0.000  -0.000   0.000   0.000   0.547
  0.000   0.000   0.000  -0.000  -0.000   0.000  -0.000   0.000  -0.000  -0.000  -0.000   0.000  -0.000  -0.000  -0.000  -0.000
  0.000  -0.000   0.000   0.000   0.000   0.000  -0.000   0.000   0.000   0.000  -0.000  -0.000  -0.000  -0.000   0.000  -0.000


------------------------ aborting loop because EDIFF is reached ----------------------------------------


    CHARGE:  cpu time      0.0079: real time      0.0079
    FORLOC:  cpu time      0.0004: real time      0.0010
    FORNL :  cpu time      0.0302: real time      0.0315
    STRESS:  cpu time      0.0872: real time      0.0905
    FORCOR:  cpu time      0.0043: real time      0.0067
    FORHAR:  cpu time      0.0017: real time      0.0028
    MIXING:  cpu time      0.0003: real time      0.0003
    OFIELD:  cpu time      0.0005: real time      0.0013

  FORCE on cell =-STRESS in cart. coord.  units (eV):
  Direction    XX          YY          ZZ          XY          YZ          ZX
  --------------------------------------------------------------------------------------
  Alpha Z   188.03875   188.03875   188.03875
  Ewald    -578.52343  -578.52343  -578.52343    -0.00000    -0.00000    -0.00000
  Hartree    94.54130    94.54130    94.54130    -0.00000    -0.00000    -0.00000
  E(xc)     -90.91315   -90.91315   -90.91315    -0.00000    -0.00000    -0.00000
  Local     180.89300   180.89300   180.89300     0.00000     0.00000    -0.00000
  n-local   -98.76038   -97.24503   -94.55805     2.37270     0.13821     0.73115
  augment    44.25980    44.25980    44.25980     0.00000     0.00000     0.00000
  Kinetic   242.35110   248.69257   255.45705     0.52541    -3.52499    -0.73126
  Fock        0.00000     0.00000     0.00000     0.00000     0.00000     0.00000
  -------------------------------------------------------------------------------------
  Total      -9.72465    -9.72465    -9.72465    -0.00000    -0.00000    -0.00000
  in kB    -319.49008  -319.49008  -319.49008    -0.00000    -0.00000    -0.00000
  external pressure =     -319.49 kB  Pullay stress =        0.00 kB


 VOLUME and BASIS-vectors are now :
 -----------------------------------------------------------------------------
  energy-cutoff  :      520.00
  volume of cell :       48.77
      direct lattice vectors                 reciprocal lattice vectors
     3.653500087  0.000000000  0.000000000     0.273710134 -0.000000000  0.000000000
     0.000000000  3.653500087  0.000000000     0.000000000  0.273710134  0.000000000
     0.000000000  0.000000000  3.653500087    -0.000000000 -0.000000000  0.273710134

  length of vectors
     3.653500087  3.653500087  3.653500087     0.273710134  0.273710134  0.273710134


 FORCES acting on ions
    electron-ion (+dipol)            ewald-force                    non-local-force                 convergence-correction
 -----------------------------------------------------------------------------------------------
   -.174E-13 -.639E-14 -.195E-13   -.237E-14 -.243E-15 -.261E-14   0.316E-23 -.221E-23 0.149E-23   -.410E-13 0.566E-14 -.231E-14
   0.112E-12 0.157E-11 0.171E-11   0.275E-14 -.781E-15 0.406E-14   0.217E-23 0.235E-23 0.226E-23   -.387E-13 -.107E-13 -.500E-13
 -----------------------------------------------------------------------------------------------
   0.942E-13 0.157E-11 0.169E-11   0.371E-15 -.102E-14 0.145E-14   0.533E-23 0.136E-24 0.375E-23   -.797E-13 -.502E-14 -.523E-13
 
 
 POSITION                                       TOTAL-FORCE (eV/Angst)
 -----------------------------------------------------------------------------------
      0.00000      0.00000      0.00000         0.000000      0.000000     -0.000000
      1.82675      1.82675      1.82675        -0.000000     -0.000000      0.000000
 -----------------------------------------------------------------------------------
    total drift:                                0.000000      0.000000      0.000000


--------------------------------------------------------------------------------------------------------



  FREE ENERGIE OF THE ION-ELECTRON SYSTEM (eV)
  ---------------------------------------------------
  free  energy   TOTEN  =       -22.07622998 eV

  energy  without entropy=      -22.07436492  energy(sigma->0) =      -22.07560829
 


--------------------------------------------------------------------------------------------------------


    POTLOK:  cpu time      0.1155: real time      0.1175


--------------------------------------------------------------------------------------------------------


     LOOP+:  cpu time      3.6155: real time      3.8499
    4ORBIT:  cpu time      0.0000: real time      0.0000

 total amount of memory used by VASP MPI-rank0    30972. kBytes
=======================================================================

   base      :      30000. kBytes
   nonlr-proj:        401. kBytes
   fftplans  :        168. kBytes
   grid      :        217. kBytes
   one-center:         15. kBytes
   wavefun   :        171. kBytes
 
  
  
 General timing and accounting informations for this job:
 ========================================================
  
                  Total CPU time used (sec):        5.225
                            User time (sec):        4.155
                          System time (sec):        1.070
                         Elapsed time (sec):       16.484
  
                   Maximum memory used (kb):      225608.
                   Average memory used (kb):          N/A
  
                          Minor page faults:        42135
                          Major page faults:            9
                 Voluntary context switches:         5868
