<?xml version="1.0" encoding="ISO-8859-1"?>
<modeling>
 <generator>
  <i name="program" type="string">vasp </i>
  <i name="version" type="string">6.3.0  </i>
  <i name="subversion" type="string">20Jan22 (build Mar 25 2022 12:20:17) complex                          parallel </i>
  <i name="platform" type="string">LinuxIFC </i>
  <i name="date" type="string">2023 08 20 </i>
  <i name="time" type="string">15:15:25 </i>
 </generator>
 <incar>
  <i type="string" name="PREC">Accurate</i>
  <i type="string" name="ALGO">normal</i>
  <i type="int" name="NELM">   400</i>
  <i name="EDIFF">      0.00001000</i>
  <i type="int" name="NSW">     0</i>
  <i type="int" name="ISIF">     2</i>
  <i name="ENCUT">    520.00000000</i>
  <i type="string" name="LREAL">Auto</i>
  <i type="int" name="ISMEAR">     1</i>
  <i name="SIGMA">      0.10000000</i>
  <i name="KSPACING">      0.20000000</i>
  <i type="logical" name="LWAVE"> F  </i>
  <i type="logical" name="LCHARG"> F  </i>
  <i type="logical" name="LASPH"> T  </i>
 </incar>
 <primitive_cell>
  <structure name="primitive_cell" >
   <crystal>
    <varray name="basis" >
     <v>       1.82675004       1.82675004      -1.82675004 </v>
     <v>      -1.82675004       1.82675004       1.82675004 </v>
     <v>       1.82675004      -1.82675004       1.82675004 </v>
    </varray>
    <i name="volume">     24.38357446 </i>
    <varray name="rec_basis" >
     <v>       0.27371013       0.27371013      -0.00000000 </v>
     <v>      -0.00000000       0.27371013       0.27371013 </v>
     <v>       0.27371013      -0.00000000       0.27371013 </v>
    </varray>
   </crystal>
   <varray name="positions" >
    <v>       0.00000000       0.00000000       0.00000000 </v>
   </varray>
  </structure>
  <varray name="primitive_index" >
   <v type="int" >        1 </v>
  </varray>
 </primitive_cell>
 <kpoints>
  <generation param="Gamma">
   <v type="int" name="divisions">       9        9        9 </v>
   <v name="usershift">      0.00000000       0.00000000       0.00000000 </v>
   <v name="genvec1">      0.11111111      -0.00000000       0.00000000 </v>
   <v name="genvec2">      0.00000000       0.11111111       0.00000000 </v>
   <v name="genvec3">      0.00000000      -0.00000000       0.11111111 </v>
   <v name="shift">      0.00000000       0.00000000       0.00000000 </v>
  </generation>
  <varray name="kpointlist" >
   <v>       0.00000000       0.00000000       0.00000000 </v>
   <v>       0.11111111       0.00000000       0.00000000 </v>
   <v>       0.22222222      -0.00000000       0.00000000 </v>
   <v>       0.33333333       0.00000000       0.00000000 </v>
   <v>       0.44444444      -0.00000000       0.00000000 </v>
   <v>       0.11111111       0.11111111       0.00000000 </v>
   <v>       0.22222222       0.11111111       0.00000000 </v>
   <v>       0.33333333       0.11111111       0.00000000 </v>
   <v>       0.44444444       0.11111111       0.00000000 </v>
   <v>       0.22222222       0.22222222       0.00000000 </v>
   <v>       0.33333333       0.22222222       0.00000000 </v>
   <v>       0.44444444       0.22222222       0.00000000 </v>
   <v>       0.33333333       0.33333333       0.00000000 </v>
   <v>       0.44444444       0.33333333       0.00000000 </v>
   <v>       0.44444444       0.44444444       0.00000000 </v>
   <v>       0.11111111       0.11111111       0.11111111 </v>
   <v>       0.22222222       0.11111111       0.11111111 </v>
   <v>       0.33333333       0.11111111       0.11111111 </v>
   <v>       0.44444444       0.11111111       0.11111111 </v>
   <v>       0.22222222       0.22222222       0.11111111 </v>
   <v>       0.33333333       0.22222222       0.11111111 </v>
   <v>       0.44444444       0.22222222       0.11111111 </v>
   <v>       0.33333333       0.33333333       0.11111111 </v>
   <v>       0.44444444       0.33333333       0.11111111 </v>
   <v>       0.44444444       0.44444444       0.11111111 </v>
   <v>       0.22222222       0.22222222       0.22222222 </v>
   <v>       0.33333333       0.22222222       0.22222222 </v>
   <v>       0.44444444       0.22222222       0.22222222 </v>
   <v>       0.33333333       0.33333333       0.22222222 </v>
   <v>       0.44444444       0.33333333       0.22222222 </v>
   <v>       0.44444444       0.44444444       0.22222222 </v>
   <v>       0.33333333       0.33333333       0.33333333 </v>
   <v>       0.44444444       0.33333333       0.33333333 </v>
   <v>       0.44444444       0.44444444       0.33333333 </v>
   <v>       0.44444444       0.44444444       0.44444444 </v>
  </varray>
  <varray name="weights" >
   <v>       0.00137174 </v>
   <v>       0.00823045 </v>
   <v>       0.00823045 </v>
   <v>       0.00823045 </v>
   <v>       0.00823045 </v>
   <v>       0.01646091 </v>
   <v>       0.03292181 </v>
   <v>       0.03292181 </v>
   <v>       0.03292181 </v>
   <v>       0.01646091 </v>
   <v>       0.03292181 </v>
   <v>       0.03292181 </v>
   <v>       0.01646091 </v>
   <v>       0.03292181 </v>
   <v>       0.01646091 </v>
   <v>       0.01097394 </v>
   <v>       0.03292181 </v>
   <v>       0.03292181 </v>
   <v>       0.03292181 </v>
   <v>       0.03292181 </v>
   <v>       0.06584362 </v>
   <v>       0.06584362 </v>
   <v>       0.03292181 </v>
   <v>       0.06584362 </v>
   <v>       0.03292181 </v>
   <v>       0.01097394 </v>
   <v>       0.03292181 </v>
   <v>       0.03292181 </v>
   <v>       0.03292181 </v>
   <v>       0.06584362 </v>
   <v>       0.03292181 </v>
   <v>       0.01097394 </v>
   <v>       0.03292181 </v>
   <v>       0.03292181 </v>
   <v>       0.01097394 </v>
  </varray>
 </kpoints>
 <parameters>
  <separator name="general" >
   <i type="string" name="SYSTEM">unknown system</i>
   <i type="logical" name="LCOMPAT"> F  </i>
  </separator>
  <separator name="electronic" >
   <i type="string" name="PREC">accura</i>
   <i name="ENMAX">    520.00000000</i>
   <i name="ENAUG">    377.42100000</i>
   <i name="EDIFF">      0.00001000</i>
   <i type="int" name="IALGO">    38</i>
   <i type="int" name="IWAVPR">    10</i>
   <i type="int" name="NBANDS">    18</i>
   <i type="int" name="NBANDSLOW">    -1</i>
   <i type="int" name="NBANDSHIGH">    -1</i>
   <i name="NELECT">     22.00000000</i>
   <i type="int" name="TURBO">     0</i>
   <i type="int" name="IRESTART">     0</i>
   <i type="int" name="NREBOOT">     0</i>
   <i type="int" name="NMIN">     0</i>
   <i name="EREF">      0.00000000</i>
   <separator name="electronic smearing" >
    <i type="int" name="ISMEAR">     1</i>
    <i name="SIGMA">      0.10000000</i>
    <i name="KSPACING">      0.20000000</i>
    <i type="logical" name="KGAMMA"> T  </i>
    <i type="logical" name="KBLOWUP"> T  </i>
   </separator>
   <separator name="electronic projectors" >
    <i type="logical" name="LREAL"> T  </i>
    <v name="ROPT">     -0.00025000</v>
    <i type="int" name="LMAXPAW">  -100</i>
    <i type="int" name="LMAXMIX">     2</i>
    <i type="logical" name="NLSPLINE"> F  </i>
   </separator>
   <separator name="electronic startup" >
    <i type="int" name="ISTART">     0</i>
    <i type="int" name="ICHARG">     2</i>
    <i type="int" name="INIWAV">     1</i>
   </separator>
   <separator name="electronic spin" >
    <i type="int" name="ISPIN">     1</i>
    <i type="logical" name="LNONCOLLINEAR"> F  </i>
    <v name="MAGMOM">      1.00000000      1.00000000</v>
    <i name="NUPDOWN">     -1.00000000</i>
    <i type="logical" name="LSORBIT"> F  </i>
    <v name="SAXIS">      0.00000000      0.00000000      1.00000000</v>
    <i type="logical" name="LSPIRAL"> F  </i>
    <v name="QSPIRAL">      0.00000000      0.00000000      0.00000000</v>
    <i type="logical" name="LZEROZ"> F  </i>
   </separator>
   <separator name="electronic exchange-correlation" >
    <i type="logical" name="LASPH"> T  </i>
    <i type="logical" name="LMETAGGA"> F  </i>
   </separator>
   <separator name="electronic convergence" >
    <i type="int" name="NELM">   400</i>
    <i type="int" name="NELMDL">    -5</i>
    <i type="int" name="NELMIN">     2</i>
    <i name="ENINI">    520.00000000</i>
    <separator name="electronic convergence detail" >
     <i type="logical" name="LDIAG"> T  </i>
     <i type="logical" name="LSUBROT"> F  </i>
     <i name="WEIMIN">      0.00000000</i>
     <i name="EBREAK">      0.00000014</i>
     <i name="DEPER">      0.30000000</i>
     <i type="int" name="NRMM">     4</i>
     <i name="TIME">      0.40000000</i>
    </separator>
   </separator>
   <separator name="electronic mixer" >
    <i name="AMIX">      0.40000000</i>
    <i name="BMIX">      1.00000000</i>
    <i name="AMIN">      0.10000000</i>
    <i name="AMIX_MAG">      1.60000000</i>
    <i name="BMIX_MAG">      1.00000000</i>
    <separator name="electronic mixer details" >
     <i type="int" name="IMIX">     4</i>
     <i type="logical" name="MIXFIRST"> F  </i>
     <i type="int" name="MAXMIX">   -45</i>
     <i name="WC">    100.00000000</i>
     <i type="int" name="INIMIX">     1</i>
     <i type="int" name="MIXPRE">     1</i>
     <i type="int" name="MREMOVE">     5</i>
    </separator>
   </separator>
   <separator name="electronic dipolcorrection" >
    <i type="logical" name="LDIPOL"> F  </i>
    <i type="logical" name="LMONO"> F  </i>
    <i type="int" name="IDIPOL">     0</i>
    <i name="EPSILON">      1.00000000</i>
    <v name="DIPOL">   -100.00000000   -100.00000000   -100.00000000</v>
    <i name="EFIELD">      0.00000000</i>
   </separator>
  </separator>
  <separator name="grids" >
   <i type="int" name="NGX">    28</i>
   <i type="int" name="NGY">    28</i>
   <i type="int" name="NGZ">    28</i>
   <i type="int" name="NGXF">    56</i>
   <i type="int" name="NGYF">    56</i>
   <i type="int" name="NGZF">    56</i>
   <i type="logical" name="ADDGRID"> F  </i>
  </separator>
  <separator name="ionic" >
   <i type="int" name="NSW">     0</i>
   <i type="int" name="IBRION">    -1</i>
   <i type="int" name="MDALGO">     0</i>
   <i type="int" name="ISIF">     2</i>
   <i name="PSTRESS">      0.00000000</i>
   <i name="EDIFFG">      0.00010000</i>
   <i type="int" name="NFREE">     0</i>
   <i name="POTIM">      0.50000000</i>
   <i name="SMASS">     -3.00000000</i>
   <i name="SCALEE">      1.00000000</i>
  </separator>
  <separator name="ionic md" >
   <i name="TEBEG">      0.00010000</i>
   <i name="TEEND">      0.00010000</i>
   <i type="int" name="NBLOCK">     1</i>
   <i type="int" name="KBLOCK">     1</i>
   <i type="int" name="NPACO">   256</i>
   <i name="APACO">     10.00000000</i>
  </separator>
  <separator name="symmetry" >
   <i type="int" name="ISYM">     2</i>
   <i name="SYMPREC">      0.00001000</i>
  </separator>
  <separator name="dos" >
   <i type="int" name="LORBIT">     0</i>
   <v name="RWIGS">     -1.00000000</v>
   <i type="int" name="NEDOS">   301</i>
   <i name="EMIN">     10.00000000</i>
   <i name="EMAX">    -10.00000000</i>
   <i name="EFERMI">      0.00000000</i>
  </separator>
  <separator name="writing" >
   <i type="int" name="NWRITE">     2</i>
   <i type="logical" name="LWAVE"> F  </i>
   <i type="logical" name="LDOWNSAMPLE"> F  </i>
   <i type="logical" name="LCHARG"> F  </i>
   <i type="logical" name="LPARD"> F  </i>
   <i type="logical" name="LVTOT"> F  </i>
   <i type="logical" name="LVHAR"> F  </i>
   <i type="logical" name="LELF"> F  </i>
   <i type="logical" name="LOPTICS"> F  </i>
   <v name="STM">      0.00000000      0.00000000      0.00000000      0.00000000      0.00000000      0.00000000      0.00000000</v>
  </separator>
  <separator name="performance" >
   <i type="int" name="NPAR">     6</i>
   <i type="int" name="NSIM">     4</i>
   <i type="int" name="NBLK">    -1</i>
   <i type="logical" name="LPLANE"> T  </i>
   <i type="logical" name="LSCALAPACK"> T  </i>
   <i type="logical" name="LSCAAWARE"> T  </i>
   <i type="logical" name="LSCALU"> F  </i>
   <i type="logical" name="LASYNC"> F  </i>
   <i type="logical" name="LORBITALREAL"> F  </i>
  </separator>
  <separator name="miscellaneous" >
   <i type="int" name="IDIOT">     3</i>
   <i type="int" name="PHON_NSTRUCT">    -1</i>
   <i type="logical" name="LMUSIC"> F  </i>
   <v name="POMASS">    180.94800000</v>
   <v name="DARWINR">      0.00000000</v>
   <v name="DARWINV">      1.00000000</v>
   <i type="logical" name="LCORR"> T  </i>
  </separator>
  <i type="logical" name="GGA_COMPAT"> T  </i>
  <i type="logical" name="LBERRY"> F  </i>
  <i type="int" name="ICORELEVEL">     0</i>
  <i type="logical" name="LDAU"> F  </i>
  <i type="int" name="I_CONSTRAINED_M">     0</i>
  <separator name="electronic exchange-correlation" >
   <i type="string" name="GGA">--</i>
   <i type="int" name="VOSKOWN">     0</i>
   <i type="logical" name="LHFCALC"> F  </i>
   <i type="string" name="PRECFOCK"></i>
   <i type="logical" name="LSYMGRAD"> F  </i>
   <i type="logical" name="LHFONE"> F  </i>
   <i type="logical" name="LRHFCALC"> F  </i>
   <i type="logical" name="LTHOMAS"> F  </i>
   <i type="logical" name="LMODELHF"> F  </i>
   <i type="logical" name="LFOCKACE"> F  </i>
   <i name="ENCUT4O">     -1.00000000</i>
   <i type="int" name="EXXOEP">     0</i>
   <i type="int" name="FOURORBIT">     0</i>
   <i name="AEXX">      0.00000000</i>
   <i name="HFALPHA">      0.00000000</i>
   <i name="MCALPHA">      0.00000000</i>
   <i name="ALDAX">      1.00000000</i>
   <i name="AGGAX">      1.00000000</i>
   <i name="ALDAC">      1.00000000</i>
   <i name="AGGAC">      1.00000000</i>
   <i type="int" name="NKREDX">     1</i>
   <i type="int" name="NKREDY">     1</i>
   <i type="int" name="NKREDZ">     1</i>
   <i type="logical" name="SHIFTRED"> F  </i>
   <i type="logical" name="ODDONLY"> F  </i>
   <i type="logical" name="EVENONLY"> F  </i>
   <i type="int" name="LMAXFOCK">     0</i>
   <i type="int" name="NMAXFOCKAE">     0</i>
   <i type="logical" name="LFOCKAEDFT"> F  </i>
   <i name="HFSCREEN">      0.00000000</i>
   <i name="HFSCREENC">      0.00000000</i>
   <i type="int" name="NBANDSGWLOW">     0</i>
  </separator>
  <separator name="vdW DFT" >
   <i type="logical" name="LUSE_VDW"> F  </i>
   <i name="Zab_VDW">     -0.84910000</i>
   <i name="PARAM1">      0.12340000</i>
   <i name="PARAM2">      1.00000000</i>
   <i name="PARAM3">      0.00000000</i>
  </separator>
  <separator name="model GW" >
   <i type="int" name="MODEL_GW">     0</i>
   <i name="MODEL_EPS0">     14.63014467</i>
   <i name="MODEL_ALPHA">      1.00000000</i>
  </separator>
  <separator name="linear response parameters" >
   <i type="logical" name="LEPSILON"> F  </i>
   <i type="logical" name="LRPA"> F  </i>
   <i type="logical" name="LNABLA"> F  </i>
   <i type="logical" name="LVEL"> F  </i>
   <i name="CSHIFT">      0.10000000</i>
   <i name="OMEGAMAX">     -1.00000000</i>
   <i name="DEG_THRESHOLD">      0.00200000</i>
   <i name="RTIME">     -0.10000000</i>
   <i name="WPLASMAI">      0.00000000</i>
   <v name="DFIELD">      0.00000000      0.00000000      0.00000000</v>
   <v name="WPLASMA">      0.00000000      0.00000000      0.00000000      0.00000000      0.00000000      0.00000000      0.00000000      0.00000000      0.00000000</v>
  </separator>
  <separator name="orbital magnetization" >
   <i type="logical" name="NUCIND"> F  </i>
   <v name="MAGPOS">      0.00000000      0.00000000      0.00000000</v>
   <i type="logical" name="LNICSALL"> T  </i>
   <i type="logical" name="ORBITALMAG"> F  </i>
   <i type="logical" name="LMAGBLOCH"> F  </i>
   <i type="logical" name="LCHIMAG"> F  </i>
   <i type="logical" name="LGAUGE"> T  </i>
   <i type="int" name="MAGATOM">     0</i>
   <v name="MAGDIPOL">      0.00000000      0.00000000      0.00000000</v>
   <v name="AVECCONST">      0.00000000      0.00000000      0.00000000</v>
  </separator>
  <separator name="response functions" >
   <i type="logical" name="LFINITE_TEMPERATURE"> F  </i>
   <i type="logical" name="LADDER"> F  </i>
   <i type="logical" name="LRPAFORCE"> F  </i>
   <i type="logical" name="LFXC"> F  </i>
   <i type="logical" name="LHARTREE"> T  </i>
   <i type="int" name="IBSE">     0</i>
   <v type="int" name="KPOINT">    -1     0     0     0</v>
   <i type="logical" name="LTCTC"> F  </i>
   <i type="logical" name="LTCTE"> F  </i>
   <i type="logical" name="LTETE"> F  </i>
   <i type="logical" name="LTRIPLET"> F  </i>
   <i type="logical" name="LFXCEPS"> F  </i>
   <i type="logical" name="LFXHEG"> F  </i>
   <i type="int" name="NATURALO">     2</i>
   <i type="logical" name="LHOLEGF"> F  </i>
   <i type="logical" name="L2ORDER"> F  </i>
   <i type="logical" name="LDMP1"> F  </i>
   <i type="logical" name="LMP2LT"> F  </i>
   <i type="logical" name="LSMP2LT"> F  </i>
   <i type="logical" name="LGWLF"> F  </i>
   <i name="ENCUTGW">     -2.00000000</i>
   <i name="ENCUTGWSOFT">     -2.00000000</i>
   <i name="ENCUTLF">     -1.00000000</i>
   <i type="logical" name="LESF_SPLINES"> F  </i>
   <i type="int" name="LMAXMP2">    -1</i>
   <i name="SCISSOR">      0.00000000</i>
   <i type="int" name="NOMEGA">     0</i>
   <i type="int" name="NOMEGAR">     0</i>
   <i type="int" name="NBANDSGW">    -1</i>
   <i type="int" name="NBANDSO">    -1</i>
   <i type="int" name="NBANDSV">    -1</i>
   <i type="int" name="NELMGW">     1</i>
   <i type="int" name="NELMHF">     1</i>
   <i type="int" name="DIM">     3</i>
   <i type="int" name="IESPILON">     4</i>
   <i type="int" name="ANTIRES">     0</i>
   <i name="OMEGAMAX">    -30.00000000</i>
   <i name="OMEGAMIN">    -30.00000000</i>
   <i name="OMEGATL">   -200.00000000</i>
   <i type="int" name="OMEGAGRID">     0</i>
   <i name="CSHIFT">     -0.10000000</i>
   <i type="logical" name="LSELFENERGY"> F  </i>
   <i type="logical" name="LSPECTRAL"> F  </i>
   <i type="logical" name="LSPECTRALGW"> F  </i>
   <i type="logical" name="LSINGLES"> F  </i>
   <i type="logical" name="LFERMIGW"> F  </i>
   <i type="logical" name="ODDONLYGW"> F  </i>
   <i type="logical" name="EVENONLYGW"> F  </i>
   <i type="int" name="NKREDLFX">     1</i>
   <i type="int" name="NKREDLFY">     1</i>
   <i type="int" name="NKREDLFZ">     1</i>
   <i type="int" name="MAXMEM">  2800</i>
   <i type="int" name="TELESCOPE">     0</i>
   <i type="int" name="NTAUPAR">    -1</i>
   <i type="int" name="NOMEGAPAR">    -1</i>
   <i name="DAMP_NEWTON">      0.80000001</i>
   <i name="LAMBDA">      1.00000000</i>
  </separator>
  <separator name="External order field" >
   <i name="OFIELD_KAPPA">      0.00000000</i>
   <v name="OFIELD_K">      0.00000000      0.00000000      0.00000000</v>
   <i name="OFIELD_Q6_NEAR">      0.00000000</i>
   <i name="OFIELD_Q6_FAR">      0.00000000</i>
   <i name="OFIELD_A">      0.00000000</i>
  </separator>
  <separator name="optional k-points parameters" >
   <i type="int" name="KPOINTS_OPT_MODE">     1</i>
   <i type="logical" name="LKPOINTS_OPT"> F  </i>
  </separator>
 </parameters>
 <atominfo>
  <atoms>       2 </atoms>
  <types>       1 </types>
  <array name="atoms" >
   <dimension dim="1">ion</dimension>
   <field type="string">element</field>
   <field type="int">atomtype</field>
   <set>
    <rc><c>Ta</c><c>   1</c></rc>
    <rc><c>Ta</c><c>   1</c></rc>
   </set>
  </array>
  <array name="atomtypes" >
   <dimension dim="1">type</dimension>
   <field type="int">atomspertype</field>
   <field type="string">element</field>
   <field>mass</field>
   <field>valence</field>
   <field type="string">pseudopotential</field>
   <set>
    <rc><c>   2</c><c>Ta</c><c>    180.94800000</c><c>     11.00000000</c><c>  PAW_PBE Ta_pv 07Sep2000               </c></rc>
   </set>
  </array>
 </atominfo>
 <structure name="initialpos" >
  <crystal>
   <varray name="basis" >
    <v>       3.65350009       0.00000000       0.00000000 </v>
    <v>       0.00000000       3.65350009       0.00000000 </v>
    <v>       0.00000000       0.00000000       3.65350009 </v>
   </varray>
   <i name="volume">     48.76714891 </i>
   <varray name="rec_basis" >
    <v>       0.27371013      -0.00000000       0.00000000 </v>
    <v>       0.00000000       0.27371013       0.00000000 </v>
    <v>      -0.00000000      -0.00000000       0.27371013 </v>
   </varray>
  </crystal>
  <varray name="positions" >
   <v>       0.00000000       0.00000000       0.00000000 </v>
   <v>       0.50000000       0.50000000       0.50000000 </v>
  </varray>
 </structure>
 <calculation>
  <scstep>
   <time name="dav">    0.30    0.35</time>
   <time name="total">    0.43    0.49</time>
   <energy>
    <i name="alphaZ">    188.03874502 </i>
    <i name="ewald">  -1735.57041916 </i>
    <i name="hartreedc">   -323.79744452 </i>
    <i name="XCdc">     44.83873792 </i>
    <i name="pawpsdc">   1641.89683898 </i>
    <i name="pawaedc">  -1608.88133722 </i>
    <i name="eentropy">     -0.00243283 </i>
    <i name="bandstr">   -168.66893404 </i>
    <i name="atom">   2094.39351137 </i>
    <i name="e_fr_energy">    132.24726552 </i>
    <i name="e_wo_entrp">    132.24969835 </i>
    <i name="e_0_energy">    132.24807647 </i>
   </energy>
  </scstep>
  <scstep>
   <time name="dav">    0.22    0.23</time>
   <time name="total">    0.22    0.24</time>
   <energy>
    <i name="e_fr_energy">    -20.38421226 </i>
    <i name="e_wo_entrp">    -20.38296533 </i>
    <i name="e_0_energy">    -20.38379661 </i>
   </energy>
  </scstep>
  <scstep>
   <time name="dav">    0.22    0.24</time>
   <time name="total">    0.22    0.24</time>
   <energy>
    <i name="e_fr_energy">    -23.55143640 </i>
    <i name="e_wo_entrp">    -23.54879183 </i>
    <i name="e_0_energy">    -23.55055487 </i>
   </energy>
  </scstep>
  <scstep>
   <time name="dav">    0.21    0.23</time>
   <time name="total">    0.21    0.23</time>
   <energy>
    <i name="e_fr_energy">    -23.58849853 </i>
    <i name="e_wo_entrp">    -23.58567777 </i>
    <i name="e_0_energy">    -23.58755828 </i>
   </energy>
  </scstep>
  <scstep>
   <time name="dav">    0.23    0.24</time>
   <time name="total">    0.25    0.27</time>
   <energy>
    <i name="e_fr_energy">    -23.58891424 </i>
    <i name="e_wo_entrp">    -23.58608957 </i>
    <i name="e_0_energy">    -23.58797269 </i>
   </energy>
  </scstep>
  <scstep>
   <time name="dav">    0.20    0.20</time>
   <time name="total">    0.33    0.35</time>
   <energy>
    <i name="e_fr_energy">    -22.35215425 </i>
    <i name="e_wo_entrp">    -22.34961244 </i>
    <i name="e_0_energy">    -22.35130698 </i>
   </energy>
  </scstep>
  <scstep>
   <time name="dav">    0.21    0.21</time>
   <time name="total">    0.33    0.35</time>
   <energy>
    <i name="e_fr_energy">    -22.07885707 </i>
    <i name="e_wo_entrp">    -22.07707203 </i>
    <i name="e_0_energy">    -22.07826206 </i>
   </energy>
  </scstep>
  <scstep>
   <time name="dav">    0.20    0.20</time>
   <time name="total">    0.33    0.34</time>
   <energy>
    <i name="e_fr_energy">    -22.07633120 </i>
    <i name="e_wo_entrp">    -22.07444259 </i>
    <i name="e_0_energy">    -22.07570166 </i>
   </energy>
  </scstep>
  <scstep>
   <time name="dav">    0.20    0.20</time>
   <time name="total">    0.32    0.34</time>
   <energy>
    <i name="e_fr_energy">    -22.07624148 </i>
    <i name="e_wo_entrp">    -22.07437391 </i>
    <i name="e_0_energy">    -22.07561896 </i>
   </energy>
  </scstep>
  <scstep>
   <time name="dav">    0.20    0.20</time>
   <time name="total">    0.33    0.34</time>
   <energy>
    <i name="e_fr_energy">    -22.07622926 </i>
    <i name="e_wo_entrp">    -22.07436566 </i>
    <i name="e_0_energy">    -22.07560806 </i>
   </energy>
  </scstep>
  <scstep>
   <time name="dav">    0.14    0.14</time>
   <time name="total">    0.26    0.27</time>
   <energy>
    <i name="alphaZ">    188.03874502 </i>
    <i name="ewald">  -1735.57041916 </i>
    <i name="hartreedc">   -283.62795463 </i>
    <i name="XCdc">     42.98096631 </i>
    <i name="pawpsdc">   2171.42488197 </i>
    <i name="pawaedc">  -2142.89798184 </i>
    <i name="eentropy">     -0.00186506 </i>
    <i name="bandstr">   -356.81611396 </i>
    <i name="atom">   2094.39351137 </i>
    <i name="e_fr_energy">    -22.07622998 </i>
    <i name="e_wo_entrp">    -22.07436492 </i>
    <i name="e_0_energy">    -22.07560829 </i>
   </energy>
  </scstep>
  <structure>
   <crystal>
    <varray name="basis" >
     <v>       3.65350009       0.00000000       0.00000000 </v>
     <v>       0.00000000       3.65350009       0.00000000 </v>
     <v>       0.00000000       0.00000000       3.65350009 </v>
    </varray>
    <i name="volume">     48.76714891 </i>
    <varray name="rec_basis" >
     <v>       0.27371013      -0.00000000       0.00000000 </v>
     <v>       0.00000000       0.27371013       0.00000000 </v>
     <v>      -0.00000000      -0.00000000       0.27371013 </v>
    </varray>
   </crystal>
   <varray name="positions" >
    <v>       0.00000000       0.00000000       0.00000000 </v>
    <v>       0.50000000       0.50000000       0.50000000 </v>
   </varray>
  </structure>
  <varray name="forces" >
   <v>       0.00000000       0.00000000      -0.00000000 </v>
   <v>      -0.00000000      -0.00000000       0.00000000 </v>
  </varray>
  <varray name="stress" >
   <v>    -319.49007746      -0.00000000      -0.00000000 </v>
   <v>      -0.00000000    -319.49007746      -0.00000000 </v>
   <v>      -0.00000000      -0.00000000    -319.49007746 </v>
  </varray>
  <energy>
   <i name="e_fr_energy">    -22.07622998 </i>
   <i name="e_wo_entrp">    -22.07436492 </i>
   <i name="e_0_energy">    -22.07560829 </i>
  </energy>
  <time name="totalsc">    3.62    3.85</time>
  <eigenvalues>
   <array>
    <dimension dim="1">band</dimension>
    <dimension dim="2">kpoint</dimension>
    <dimension dim="3">spin</dimension>
    <field>eigene</field>
    <field>occ</field>
    <set>
     <set comment="spin 1">
      <set comment="kpoint 1">
       <r>  -31.2522    1.0000 </r>
       <r>  -31.2522    1.0000 </r>
       <r>  -31.2522    1.0000 </r>
       <r>  -30.9549    1.0000 </r>
       <r>  -30.9549    1.0000 </r>
       <r>  -30.9549    1.0000 </r>
       <r>   -3.4119    1.0000 </r>
       <r>    0.9315    1.0000 </r>
       <r>    0.9315    1.0000 </r>
       <r>    3.8981   -0.0000 </r>
       <r>    3.8981   -0.0000 </r>
       <r>    3.8981   -0.0000 </r>
       <r>    6.2034    0.0000 </r>
       <r>    6.2034    0.0000 </r>
       <r>    7.8937    0.0000 </r>
       <r>    7.8937    0.0000 </r>
       <r>    7.8937    0.0000 </r>
       <r>    9.6755    0.0000 </r>
      </set>
      <set comment="kpoint 2">
       <r>  -31.2505    1.0000 </r>
       <r>  -31.2429    1.0000 </r>
       <r>  -31.2429    1.0000 </r>
       <r>  -30.9714    1.0000 </r>
       <r>  -30.9634    1.0000 </r>
       <r>  -30.9634    1.0000 </r>
       <r>   -3.2166    1.0000 </r>
       <r>    1.0366    1.0000 </r>
       <r>    1.0408    1.0000 </r>
       <r>    3.8752   -0.0000 </r>
       <r>    3.8752   -0.0000 </r>
       <r>    3.9900   -0.0000 </r>
       <r>    5.9449   -0.0000 </r>
       <r>    6.2947    0.0000 </r>
       <r>    7.0958    0.0000 </r>
       <r>    7.0958    0.0000 </r>
       <r>    7.7270    0.0000 </r>
       <r>    8.8147    0.0000 </r>
      </set>
      <set comment="kpoint 3">
       <r>  -31.2430    1.0000 </r>
       <r>  -31.2161    1.0000 </r>
       <r>  -31.2161    1.0000 </r>
       <r>  -31.0163    1.0000 </r>
       <r>  -30.9883    1.0000 </r>
       <r>  -30.9883    1.0000 </r>
       <r>   -2.6491    1.0000 </r>
       <r>    1.2315    1.0000 </r>
       <r>    1.3652    1.0000 </r>
       <r>    3.8417   -0.0000 </r>
       <r>    3.8417   -0.0000 </r>
       <r>    4.2611   -0.0000 </r>
       <r>    5.2698   -0.0000 </r>
       <r>    6.0069    0.0000 </r>
       <r>    6.0069    0.0000 </r>
       <r>    6.5270    0.0000 </r>
       <r>    7.2729    0.0000 </r>
       <r>    7.4306    0.0000 </r>
      </set>
      <set comment="kpoint 4">
       <r>  -31.2246    1.0000 </r>
       <r>  -31.1754    1.0000 </r>
       <r>  -31.1754    1.0000 </r>
       <r>  -31.0771    1.0000 </r>
       <r>  -31.0267    1.0000 </r>
       <r>  -31.0267    1.0000 </r>
       <r>   -1.7668    1.0000 </r>
       <r>    1.1324    1.0000 </r>
       <r>    1.8933    1.0000 </r>
       <r>    3.8783   -0.0000 </r>
       <r>    3.8783   -0.0000 </r>
       <r>    4.3814   -0.0000 </r>
       <r>    4.6971   -0.0000 </r>
       <r>    5.1141   -0.0000 </r>
       <r>    5.1141   -0.0000 </r>
       <r>    6.5700    0.0000 </r>
       <r>    6.6388    0.0000 </r>
       <r>    6.7596    0.0000 </r>
      </set>
      <set comment="kpoint 5">
       <r>  -31.1901    1.0000 </r>
       <r>  -31.1390    1.0000 </r>
       <r>  -31.1262    1.0000 </r>
       <r>  -31.1262    1.0000 </r>
       <r>  -31.0745    1.0000 </r>
       <r>  -31.0745    1.0000 </r>
       <r>   -0.6775    1.0000 </r>
       <r>    0.4129    1.0000 </r>
       <r>    2.6028    1.0000 </r>
       <r>    3.4546   -0.0132 </r>
       <r>    4.0675   -0.0000 </r>
       <r>    4.0675   -0.0000 </r>
       <r>    4.4688   -0.0000 </r>
       <r>    4.4688   -0.0000 </r>
       <r>    5.2712   -0.0000 </r>
       <r>    5.9404   -0.0000 </r>
       <r>    6.5245    0.0000 </r>
       <r>    6.7665    0.0000 </r>
      </set>
      <set comment="kpoint 6">
       <r>  -31.2650    1.0000 </r>
       <r>  -31.2340    1.0000 </r>
       <r>  -31.2182    1.0000 </r>
       <r>  -31.0040    1.0000 </r>
       <r>  -30.9714    1.0000 </r>
       <r>  -30.9547    1.0000 </r>
       <r>   -3.0263    1.0000 </r>
       <r>    1.1323    1.0000 </r>
       <r>    1.1557    1.0000 </r>
       <r>    3.6843   -0.0000 </r>
       <r>    3.8200   -0.0000 </r>
       <r>    4.2566   -0.0000 </r>
       <r>    5.9342   -0.0000 </r>
       <r>    6.2153    0.0000 </r>
       <r>    6.3285    0.0000 </r>
       <r>    6.3854    0.0000 </r>
       <r>    7.9566    0.0000 </r>
       <r>    9.5455    0.0000 </r>
      </set>
      <set comment="kpoint 7">
       <r>  -31.2711    1.0000 </r>
       <r>  -31.2087    1.0000 </r>
       <r>  -31.1807    1.0000 </r>
       <r>  -31.0595    1.0000 </r>
       <r>  -30.9946    1.0000 </r>
       <r>  -30.9653    1.0000 </r>
       <r>   -2.4753    1.0000 </r>
       <r>    1.3225    1.0000 </r>
       <r>    1.4609    1.0000 </r>
       <r>    3.5302   -0.0008 </r>
       <r>    3.6970   -0.0000 </r>
       <r>    4.6636   -0.0000 </r>
       <r>    5.3520   -0.0000 </r>
       <r>    5.4193   -0.0000 </r>
       <r>    5.4752   -0.0000 </r>
       <r>    6.4250    0.0000 </r>
       <r>    7.7418    0.0000 </r>
       <r>    8.2536    0.0000 </r>
      </set>
      <set comment="kpoint 8">
       <r>  -31.2618    1.0000 </r>
       <r>  -31.1704    1.0000 </r>
       <r>  -31.1352    1.0000 </r>
       <r>  -31.1244    1.0000 </r>
       <r>  -31.0306    1.0000 </r>
       <r>  -30.9944    1.0000 </r>
       <r>   -1.6236    1.0000 </r>
       <r>    1.1969    1.0000 </r>
       <r>    1.9365    1.0000 </r>
       <r>    3.4999   -0.0028 </r>
       <r>    3.5316   -0.0007 </r>
       <r>    4.6023   -0.0000 </r>
       <r>    4.8160   -0.0000 </r>
       <r>    4.8657   -0.0000 </r>
       <r>    5.1800   -0.0000 </r>
       <r>    6.6971    0.0000 </r>
       <r>    7.1036    0.0000 </r>
       <r>    7.1780    0.0000 </r>
      </set>
      <set comment="kpoint 9">
       <r>  -31.2335    1.0000 </r>
       <r>  -31.1859    1.0000 </r>
       <r>  -31.1240    1.0000 </r>
       <r>  -31.0853    1.0000 </r>
       <r>  -31.0754    1.0000 </r>
       <r>  -31.0364    1.0000 </r>
       <r>   -0.5800    1.0000 </r>
       <r>    0.4682    1.0000 </r>
       <r>    2.5441    1.0000 </r>
       <r>    3.1575    1.0341 </r>
       <r>    3.6456   -0.0000 </r>
       <r>    4.0070   -0.0000 </r>
       <r>    4.5540   -0.0000 </r>
       <r>    4.6358   -0.0000 </r>
       <r>    5.7996   -0.0000 </r>
       <r>    6.4889    0.0000 </r>
       <r>    6.6792    0.0000 </r>
       <r>    6.7592    0.0000 </r>
      </set>
      <set comment="kpoint 10">
       <r>  -31.2974    1.0000 </r>
       <r>  -31.1877    1.0000 </r>
       <r>  -31.1310    1.0000 </r>
       <r>  -31.1264    1.0000 </r>
       <r>  -31.0131    1.0000 </r>
       <r>  -30.9544    1.0000 </r>
       <r>   -1.9787    1.0000 </r>
       <r>    1.3839    1.0000 </r>
       <r>    1.8022    1.0000 </r>
       <r>    3.1966    0.9750 </r>
       <r>    3.4445   -0.0171 </r>
       <r>    4.5546   -0.0000 </r>
       <r>    4.6572   -0.0000 </r>
       <r>    5.2843   -0.0000 </r>
       <r>    5.7517   -0.0000 </r>
       <r>    6.2904    0.0000 </r>
       <r>    8.1200    0.0000 </r>
       <r>    9.0250    0.0000 </r>
      </set>
      <set comment="kpoint 11">
       <r>  -31.3063    1.0000 </r>
       <r>  -31.1954    1.0000 </r>
       <r>  -31.1560    1.0000 </r>
       <r>  -31.0800    1.0000 </r>
       <r>  -31.0420    1.0000 </r>
       <r>  -30.9643    1.0000 </r>
       <r>   -1.2337    1.0000 </r>
       <r>    1.1393    1.0000 </r>
       <r>    2.2357    1.0000 </r>
       <r>    3.0224    1.0012 </r>
       <r>    3.2318    0.8068 </r>
       <r>    3.8290   -0.0000 </r>
       <r>    4.5929   -0.0000 </r>
       <r>    5.5393   -0.0000 </r>
       <r>    5.9708   -0.0000 </r>
       <r>    6.5387    0.0000 </r>
       <r>    7.9345    0.0000 </r>
       <r>    7.9417    0.0000 </r>
      </set>
      <set comment="kpoint 12">
       <r>  -31.2922    1.0000 </r>
       <r>  -31.2539    1.0000 </r>
       <r>  -31.1179    1.0000 </r>
       <r>  -31.0783    1.0000 </r>
       <r>  -31.0321    1.0000 </r>
       <r>  -30.9918    1.0000 </r>
       <r>   -0.3600    1.0000 </r>
       <r>    0.4920    1.0000 </r>
       <r>    2.6619    1.0000 </r>
       <r>    3.0061    1.0006 </r>
       <r>    3.0554    1.0046 </r>
       <r>    3.3222    0.1243 </r>
       <r>    4.9923   -0.0000 </r>
       <r>    5.2775   -0.0000 </r>
       <r>    6.6916    0.0000 </r>
       <r>    6.7294    0.0000 </r>
       <r>    7.0233    0.0000 </r>
       <r>    7.3898    0.0000 </r>
      </set>
      <set comment="kpoint 13">
       <r>  -31.3340    1.0000 </r>
       <r>  -31.2623    1.0000 </r>
       <r>  -31.1346    1.0000 </r>
       <r>  -31.0601    1.0000 </r>
       <r>  -31.0300    1.0000 </r>
       <r>  -30.9540    1.0000 </r>
       <r>   -0.7058    1.0000 </r>
       <r>    0.7993    1.0000 </r>
       <r>    2.7127    1.0000 </r>
       <r>    2.7777    1.0000 </r>
       <r>    3.1865    1.0011 </r>
       <r>    3.1964    0.9754 </r>
       <r>    4.8240   -0.0000 </r>
       <r>    5.9528   -0.0000 </r>
       <r>    6.4663    0.0000 </r>
       <r>    6.7946    0.0000 </r>
       <r>    8.0122    0.0000 </r>
       <r>    8.3132    0.0000 </r>
      </set>
      <set comment="kpoint 14">
       <r>  -31.3371    1.0000 </r>
       <r>  -31.3123    1.0000 </r>
       <r>  -31.1092    1.0000 </r>
       <r>  -31.0833    1.0000 </r>
       <r>  -30.9898    1.0000 </r>
       <r>  -30.9633    1.0000 </r>
       <r>   -0.1635    1.0000 </r>
       <r>    0.3398    1.0000 </r>
       <r>    2.6268    1.0000 </r>
       <r>    2.7876    1.0000 </r>
       <r>    3.1982    0.9699 </r>
       <r>    3.2861    0.3758 </r>
       <r>    5.3964   -0.0000 </r>
       <r>    5.8475   -0.0000 </r>
       <r>    6.6734    0.0000 </r>
       <r>    7.1975    0.0000 </r>
       <r>    7.5582    0.0000 </r>
       <r>    8.1327    0.0000 </r>
      </set>
      <set comment="kpoint 15">
       <r>  -31.3577    1.0000 </r>
       <r>  -31.3492    1.0000 </r>
       <r>  -31.0996    1.0000 </r>
       <r>  -31.0906    1.0000 </r>
       <r>  -30.9629    1.0000 </r>
       <r>  -30.9537    1.0000 </r>
       <r>   -0.0245    1.0000 </r>
       <r>    0.1346    1.0000 </r>
       <r>    2.4276    1.0000 </r>
       <r>    2.4811    1.0000 </r>
       <r>    3.7712   -0.0000 </r>
       <r>    3.7819   -0.0000 </r>
       <r>    5.7881   -0.0000 </r>
       <r>    6.0184    0.0000 </r>
       <r>    6.6493    0.0000 </r>
       <r>    6.9023    0.0000 </r>
       <r>    8.2110    0.0000 </r>
       <r>    8.4439    0.0000 </r>
      </set>
      <set comment="kpoint 16">
       <r>  -31.2553    1.0000 </r>
       <r>  -31.2553    1.0000 </r>
       <r>  -31.1890    1.0000 </r>
       <r>  -31.0329    1.0000 </r>
       <r>  -30.9637    1.0000 </r>
       <r>  -30.9637    1.0000 </r>
       <r>   -2.8400    1.0000 </r>
       <r>    1.2495    1.0000 </r>
       <r>    1.2495    1.0000 </r>
       <r>    3.6251   -0.0000 </r>
       <r>    3.6251   -0.0000 </r>
       <r>    4.5266   -0.0000 </r>
       <r>    5.2693   -0.0000 </r>
       <r>    6.0529    0.0000 </r>
       <r>    6.0529    0.0000 </r>
       <r>    7.1708    0.0000 </r>
       <r>    7.1708    0.0000 </r>
       <r>   10.1665    0.0000 </r>
      </set>
      <set comment="kpoint 17">
       <r>  -31.2715    1.0000 </r>
       <r>  -31.2274    1.0000 </r>
       <r>  -31.1480    1.0000 </r>
       <r>  -31.0885    1.0000 </r>
       <r>  -30.9896    1.0000 </r>
       <r>  -30.9666    1.0000 </r>
       <r>   -2.3017    1.0000 </r>
       <r>    1.4598    1.0000 </r>
       <r>    1.5230    1.0000 </r>
       <r>    3.4112   -0.0318 </r>
       <r>    3.4745   -0.0072 </r>
       <r>    4.3458   -0.0000 </r>
       <r>    5.0023   -0.0000 </r>
       <r>    5.6255   -0.0000 </r>
       <r>    6.1424    0.0000 </r>
       <r>    6.3482    0.0000 </r>
       <r>    7.1482    0.0000 </r>
       <r>    9.1508    0.0000 </r>
      </set>
      <set comment="kpoint 18">
       <r>  -31.2716    1.0000 </r>
       <r>  -31.1851    1.0000 </r>
       <r>  -31.1517    1.0000 </r>
       <r>  -31.1036    1.0000 </r>
       <r>  -31.0298    1.0000 </r>
       <r>  -30.9859    1.0000 </r>
       <r>   -1.4746    1.0000 </r>
       <r>    1.3018    1.0000 </r>
       <r>    1.9483    1.0000 </r>
       <r>    3.2632    0.5676 </r>
       <r>    3.3509    0.0108 </r>
       <r>    3.8915   -0.0000 </r>
       <r>    5.1116   -0.0000 </r>
       <r>    5.3477   -0.0000 </r>
       <r>    5.5784   -0.0000 </r>
       <r>    6.6106    0.0000 </r>
       <r>    6.6498    0.0000 </r>
       <r>    8.1022    0.0000 </r>
      </set>
      <set comment="kpoint 19">
       <r>  -31.2510    1.0000 </r>
       <r>  -31.2094    1.0000 </r>
       <r>  -31.1337    1.0000 </r>
       <r>  -31.0798    1.0000 </r>
       <r>  -31.0590    1.0000 </r>
       <r>  -31.0182    1.0000 </r>
       <r>   -0.4684    1.0000 </r>
       <r>    0.5481    1.0000 </r>
       <r>    2.4618    1.0000 </r>
       <r>    2.9393    1.0000 </r>
       <r>    3.4804   -0.0059 </r>
       <r>    3.7160   -0.0000 </r>
       <r>    4.7891   -0.0000 </r>
       <r>    4.8716   -0.0000 </r>
       <r>    6.1918    0.0000 </r>
       <r>    6.3836    0.0000 </r>
       <r>    6.7878    0.0000 </r>
       <r>    7.2448    0.0000 </r>
      </set>
      <set comment="kpoint 20">
       <r>  -31.2867    1.0000 </r>
       <r>  -31.2164    1.0000 </r>
       <r>  -31.1459    1.0000 </r>
       <r>  -31.1029    1.0000 </r>
       <r>  -31.0053    1.0000 </r>
       <r>  -30.9643    1.0000 </r>
       <r>   -1.8068    1.0000 </r>
       <r>    1.5606    1.0000 </r>
       <r>    1.8488    1.0000 </r>
       <r>    3.1126    1.0237 </r>
       <r>    3.2353    0.7830 </r>
       <r>    3.5371   -0.0006 </r>
       <r>    5.6241   -0.0000 </r>
       <r>    5.6810   -0.0000 </r>
       <r>    5.8580   -0.0000 </r>
       <r>    6.2581    0.0000 </r>
       <r>    7.3227    0.0000 </r>
       <r>   10.0276    0.0000 </r>
      </set>
      <set comment="kpoint 21">
       <r>  -31.2985    1.0000 </r>
       <r>  -31.2073    1.0000 </r>
       <r>  -31.1798    1.0000 </r>
       <r>  -31.0595    1.0000 </r>
       <r>  -31.0394    1.0000 </r>
       <r>  -30.9710    1.0000 </r>
       <r>   -1.0686    1.0000 </r>
       <r>    1.3086    1.0000 </r>
       <r>    2.1989    1.0000 </r>
       <r>    2.9136    1.0000 </r>
       <r>    3.0593    1.0053 </r>
       <r>    3.2812    0.4155 </r>
       <r>    5.2301   -0.0000 </r>
       <r>    5.6348   -0.0000 </r>
       <r>    6.3442    0.0000 </r>
       <r>    6.5297    0.0000 </r>
       <r>    7.0385    0.0000 </r>
       <r>    8.9915    0.0000 </r>
      </set>
      <set comment="kpoint 22">
       <r>  -31.2902    1.0000 </r>
       <r>  -31.2586    1.0000 </r>
       <r>  -31.1329    1.0000 </r>
       <r>  -31.0839    1.0000 </r>
       <r>  -31.0210    1.0000 </r>
       <r>  -30.9906    1.0000 </r>
       <r>   -0.2102    1.0000 </r>
       <r>    0.6310    1.0000 </r>
       <r>    2.4984    1.0000 </r>
       <r>    2.7385    1.0000 </r>
       <r>    3.0786    1.0101 </r>
       <r>    3.2278    0.8317 </r>
       <r>    5.2291   -0.0000 </r>
       <r>    5.3817   -0.0000 </r>
       <r>    6.6145    0.0000 </r>
       <r>    6.6414    0.0000 </r>
       <r>    7.1783    0.0000 </r>
       <r>    8.0534    0.0000 </r>
      </set>
      <set comment="kpoint 23">
       <r>  -31.3222    1.0000 </r>
       <r>  -31.2640    1.0000 </r>
       <r>  -31.1549    1.0000 </r>
       <r>  -31.0600    1.0000 </r>
       <r>  -31.0206    1.0000 </r>
       <r>  -30.9651    1.0000 </r>
       <r>   -0.5227    1.0000 </r>
       <r>    0.9701    1.0000 </r>
       <r>    2.6451    1.0000 </r>
       <r>    2.7388    1.0000 </r>
       <r>    2.8936    1.0000 </r>
       <r>    2.9935    1.0003 </r>
       <r>    5.2140   -0.0000 </r>
       <r>    6.0006   -0.0000 </r>
       <r>    6.4817    0.0000 </r>
       <r>    7.1707    0.0000 </r>
       <r>    7.2912    0.0000 </r>
       <r>    9.2604    0.0000 </r>
      </set>
      <set comment="kpoint 24">
       <r>  -31.3269    1.0000 </r>
       <r>  -31.3068    1.0000 </r>
       <r>  -31.1221    1.0000 </r>
       <r>  -31.0887    1.0000 </r>
       <r>  -30.9908    1.0000 </r>
       <r>  -30.9718    1.0000 </r>
       <r>    0.0231    1.0000 </r>
       <r>    0.5155    1.0000 </r>
       <r>    2.5460    1.0000 </r>
       <r>    2.6327    1.0000 </r>
       <r>    3.1251    1.0293 </r>
       <r>    3.1317    1.0319 </r>
       <r>    5.5728   -0.0000 </r>
       <r>    5.9120   -0.0000 </r>
       <r>    6.6436    0.0000 </r>
       <r>    6.9203    0.0000 </r>
       <r>    7.9590    0.0000 </r>
       <r>    8.6852    0.0000 </r>
      </set>
      <set comment="kpoint 25">
       <r>  -31.3453    1.0000 </r>
       <r>  -31.3384    1.0000 </r>
       <r>  -31.1085    1.0000 </r>
       <r>  -31.0967    1.0000 </r>
       <r>  -30.9720    1.0000 </r>
       <r>  -30.9656    1.0000 </r>
       <r>    0.1729    1.0000 </r>
       <r>    0.3255    1.0000 </r>
       <r>    2.3799    1.0000 </r>
       <r>    2.4205    1.0000 </r>
       <r>    3.5606   -0.0002 </r>
       <r>    3.6063   -0.0000 </r>
       <r>    5.8979   -0.0000 </r>
       <r>    6.0833    0.0000 </r>
       <r>    6.6620    0.0000 </r>
       <r>    6.8210    0.0000 </r>
       <r>    8.5762    0.0000 </r>
       <r>    8.8586    0.0000 </r>
      </set>
      <set comment="kpoint 26">
       <r>  -31.2561    1.0000 </r>
       <r>  -31.2561    1.0000 </r>
       <r>  -31.1893    1.0000 </r>
       <r>  -31.0632    1.0000 </r>
       <r>  -30.9932    1.0000 </r>
       <r>  -30.9932    1.0000 </r>
       <r>   -1.3214    1.0000 </r>
       <r>    1.9748    1.0000 </r>
       <r>    1.9748    1.0000 </r>
       <r>    2.6502    1.0000 </r>
       <r>    2.9105    1.0000 </r>
       <r>    2.9105    1.0000 </r>
       <r>    6.1416    0.0000 </r>
       <r>    6.1416    0.0000 </r>
       <r>    6.3406    0.0000 </r>
       <r>    6.4618    0.0000 </r>
       <r>    6.4618    0.0000 </r>
       <r>    9.7391    0.0000 </r>
      </set>
      <set comment="kpoint 27">
       <r>  -31.2833    1.0000 </r>
       <r>  -31.2364    1.0000 </r>
       <r>  -31.2094    1.0000 </r>
       <r>  -31.0378    1.0000 </r>
       <r>  -31.0297    1.0000 </r>
       <r>  -30.9876    1.0000 </r>
       <r>   -0.6158    1.0000 </r>
       <r>    1.6278    1.0000 </r>
       <r>    2.1429    1.0000 </r>
       <r>    2.6831    1.0000 </r>
       <r>    2.7481    1.0000 </r>
       <r>    2.7581    1.0000 </r>
       <r>    5.9032   -0.0000 </r>
       <r>    5.9406   -0.0000 </r>
       <r>    6.4855    0.0000 </r>
       <r>    6.5706    0.0000 </r>
       <r>    7.1361    0.0000 </r>
       <r>    9.7041    0.0000 </r>
      </set>
      <set comment="kpoint 28">
       <r>  -31.2899    1.0000 </r>
       <r>  -31.2731    1.0000 </r>
       <r>  -31.1527    1.0000 </r>
       <r>  -31.0931    1.0000 </r>
       <r>  -31.0055    1.0000 </r>
       <r>  -30.9915    1.0000 </r>
       <r>    0.1651    1.0000 </r>
       <r>    0.9093    1.0000 </r>
       <r>    2.3145    1.0000 </r>
       <r>    2.4856    1.0000 </r>
       <r>    2.8507    1.0000 </r>
       <r>    2.9874    1.0002 </r>
       <r>    5.6812   -0.0000 </r>
       <r>    5.7387   -0.0000 </r>
       <r>    6.4996    0.0000 </r>
       <r>    6.6119    0.0000 </r>
       <r>    7.9895    0.0000 </r>
       <r>    8.9441    0.0000 </r>
      </set>
      <set comment="kpoint 29">
       <r>  -31.2884    1.0000 </r>
       <r>  -31.2694    1.0000 </r>
       <r>  -31.1963    1.0000 </r>
       <r>  -31.0568    1.0000 </r>
       <r>  -31.0086    1.0000 </r>
       <r>  -30.9972    1.0000 </r>
       <r>   -0.0136    1.0000 </r>
       <r>    1.3837    1.0000 </r>
       <r>    2.4586    1.0000 </r>
       <r>    2.4900    1.0000 </r>
       <r>    2.6104    1.0000 </r>
       <r>    2.6260    1.0000 </r>
       <r>    5.9146   -0.0000 </r>
       <r>    6.2015    0.0000 </r>
       <r>    6.5019    0.0000 </r>
       <r>    6.7281    0.0000 </r>
       <r>    8.0049    0.0000 </r>
       <r>    9.5687    0.0000 </r>
      </set>
      <set comment="kpoint 30">
       <r>  -31.2992    1.0000 </r>
       <r>  -31.2931    1.0000 </r>
       <r>  -31.1510    1.0000 </r>
       <r>  -31.1000    1.0000 </r>
       <r>  -30.9983    1.0000 </r>
       <r>  -30.9964    1.0000 </r>
       <r>    0.5365    1.0000 </r>
       <r>    0.9708    1.0000 </r>
       <r>    2.3814    1.0000 </r>
       <r>    2.3860    1.0000 </r>
       <r>    2.7597    1.0000 </r>
       <r>    2.9025    1.0000 </r>
       <r>    5.9896   -0.0000 </r>
       <r>    6.1385    0.0000 </r>
       <r>    6.6348    0.0000 </r>
       <r>    6.6675    0.0000 </r>
       <r>    8.8294    0.0000 </r>
       <r>    9.5998    0.0000 </r>
      </set>
      <set comment="kpoint 31">
       <r>  -31.3095    1.0000 </r>
       <r>  -31.3080    1.0000 </r>
       <r>  -31.1316    1.0000 </r>
       <r>  -31.1113    1.0000 </r>
       <r>  -30.9999    1.0000 </r>
       <r>  -30.9986    1.0000 </r>
       <r>    0.7296    1.0000 </r>
       <r>    0.8525    1.0000 </r>
       <r>    2.2760    1.0000 </r>
       <r>    2.2988    1.0000 </r>
       <r>    3.0939    1.0155 </r>
       <r>    3.1983    0.9695 </r>
       <r>    6.1804    0.0000 </r>
       <r>    6.2816    0.0000 </r>
       <r>    6.6919    0.0000 </r>
       <r>    6.7381    0.0000 </r>
       <r>    9.4544    0.0000 </r>
       <r>    9.6341    0.0000 </r>
      </set>
      <set comment="kpoint 32">
       <r>  -31.2763    1.0000 </r>
       <r>  -31.2370    1.0000 </r>
       <r>  -31.2370    1.0000 </r>
       <r>  -31.0468    1.0000 </r>
       <r>  -31.0468    1.0000 </r>
       <r>  -31.0068    1.0000 </r>
       <r>    0.6687    1.0000 </r>
       <r>    1.5664    1.0000 </r>
       <r>    2.3438    1.0000 </r>
       <r>    2.3438    1.0000 </r>
       <r>    2.4691    1.0000 </r>
       <r>    2.4691    1.0000 </r>
       <r>    6.4521    0.0000 </r>
       <r>    6.4521    0.0000 </r>
       <r>    6.4864    0.0000 </r>
       <r>    6.4864    0.0000 </r>
       <r>    8.9336    0.0000 </r>
       <r>    8.9519    0.0000 </r>
      </set>
      <set comment="kpoint 33">
       <r>  -31.2776    1.0000 </r>
       <r>  -31.2655    1.0000 </r>
       <r>  -31.1743    1.0000 </r>
       <r>  -31.1083    1.0000 </r>
       <r>  -31.0313    1.0000 </r>
       <r>  -31.0158    1.0000 </r>
       <r>    1.1827    1.0000 </r>
       <r>    1.4070    1.0000 </r>
       <r>    2.2827    1.0000 </r>
       <r>    2.3331    1.0000 </r>
       <r>    2.4438    1.0000 </r>
       <r>    2.6639    1.0000 </r>
       <r>    6.3900    0.0000 </r>
       <r>    6.4325    0.0000 </r>
       <r>    6.6201    0.0000 </r>
       <r>    6.6556    0.0000 </r>
       <r>    9.0727    0.0000 </r>
       <r>    9.6467    0.0000 </r>
      </set>
      <set comment="kpoint 34">
       <r>  -31.2647    1.0000 </r>
       <r>  -31.2549    1.0000 </r>
       <r>  -31.1603    1.0000 </r>
       <r>  -31.1236    1.0000 </r>
       <r>  -31.0528    1.0000 </r>
       <r>  -31.0392    1.0000 </r>
       <r>    1.5182    1.0000 </r>
       <r>    1.5318    1.0000 </r>
       <r>    2.2015    1.0000 </r>
       <r>    2.2587    1.0000 </r>
       <r>    2.6119    1.0000 </r>
       <r>    2.7602    1.0000 </r>
       <r>    6.5177    0.0000 </r>
       <r>    6.5510    0.0000 </r>
       <r>    6.7207    0.0000 </r>
       <r>    6.7216    0.0000 </r>
       <r>    8.6126    0.0000 </r>
       <r>    8.9568    0.0000 </r>
      </set>
      <set comment="kpoint 35">
       <r>  -31.2210    1.0000 </r>
       <r>  -31.1884    1.0000 </r>
       <r>  -31.1884    1.0000 </r>
       <r>  -31.1182    1.0000 </r>
       <r>  -31.1182    1.0000 </r>
       <r>  -31.0852    1.0000 </r>
       <r>    1.9662    1.0000 </r>
       <r>    2.2355    1.0000 </r>
       <r>    2.2355    1.0000 </r>
       <r>    2.2386    1.0000 </r>
       <r>    2.4216    1.0000 </r>
       <r>    2.4216    1.0000 </r>
       <r>    6.7310    0.0000 </r>
       <r>    6.7310    0.0000 </r>
       <r>    6.7359    0.0000 </r>
       <r>    6.7359    0.0000 </r>
       <r>    7.9238    0.0000 </r>
       <r>    8.0742    0.0000 </r>
      </set>
     </set>
    </set>
   </array>
  </eigenvalues>
  <separator name="orbital magnetization" >
   <v name="MAGDIPOLOUT">      0.00000000      0.00000000      0.00000000</v>
  </separator>
  <dos>
   <i name="efermi">      3.27120338 </i>
   <total>
    <array>
     <dimension dim="1">gridpoints</dimension>
     <dimension dim="2">spin</dimension>
     <field>energy</field>
     <field>total</field>
     <field>integrated</field>
     <set>
      <set comment="spin 1">
       <r>   -33.4339     0.0000     0.0000 </r>
       <r>   -33.2817     0.0000     0.0000 </r>
       <r>   -33.1294     0.0000     0.0000 </r>
       <r>   -32.9772     0.0000     0.0000 </r>
       <r>   -32.8249     0.0000     0.0000 </r>
       <r>   -32.6727     0.0000     0.0000 </r>
       <r>   -32.5204     0.0000     0.0000 </r>
       <r>   -32.3682     0.0000     0.0000 </r>
       <r>   -32.2159    -0.0000    -0.0000 </r>
       <r>   -32.0636    -0.0000    -0.0000 </r>
       <r>   -31.9114    -0.0000    -0.0000 </r>
       <r>   -31.7591    -0.0000    -0.0000 </r>
       <r>   -31.6069    -0.0021    -0.0003 </r>
       <r>   -31.4546    -0.4123    -0.0631 </r>
       <r>   -31.3024     7.9424     1.1462 </r>
       <r>   -31.1501    25.6787     5.0559 </r>
       <r>   -30.9979    33.0710    10.0911 </r>
       <r>   -30.8456    13.2136    12.1030 </r>
       <r>   -30.6933    -0.6724    12.0006 </r>
       <r>   -30.5411    -0.0040    12.0000 </r>
       <r>   -30.3888    -0.0000    12.0000 </r>
       <r>   -30.2366    -0.0000    12.0000 </r>
       <r>   -30.0843     0.0000    12.0000 </r>
       <r>   -29.9321     0.0000    12.0000 </r>
       <r>   -29.7798     0.0000    12.0000 </r>
       <r>   -29.6276     0.0000    12.0000 </r>
       <r>   -29.4753     0.0000    12.0000 </r>
       <r>   -29.3230     0.0000    12.0000 </r>
       <r>   -29.1708     0.0000    12.0000 </r>
       <r>   -29.0185     0.0000    12.0000 </r>
       <r>   -28.8663     0.0000    12.0000 </r>
       <r>   -28.7140     0.0000    12.0000 </r>
       <r>   -28.5618     0.0000    12.0000 </r>
       <r>   -28.4095     0.0000    12.0000 </r>
       <r>   -28.2573     0.0000    12.0000 </r>
       <r>   -28.1050     0.0000    12.0000 </r>
       <r>   -27.9527     0.0000    12.0000 </r>
       <r>   -27.8005     0.0000    12.0000 </r>
       <r>   -27.6482     0.0000    12.0000 </r>
       <r>   -27.4960     0.0000    12.0000 </r>
       <r>   -27.3437     0.0000    12.0000 </r>
       <r>   -27.1915     0.0000    12.0000 </r>
       <r>   -27.0392     0.0000    12.0000 </r>
       <r>   -26.8870     0.0000    12.0000 </r>
       <r>   -26.7347     0.0000    12.0000 </r>
       <r>   -26.5824     0.0000    12.0000 </r>
       <r>   -26.4302     0.0000    12.0000 </r>
       <r>   -26.2779     0.0000    12.0000 </r>
       <r>   -26.1257     0.0000    12.0000 </r>
       <r>   -25.9734     0.0000    12.0000 </r>
       <r>   -25.8212     0.0000    12.0000 </r>
       <r>   -25.6689     0.0000    12.0000 </r>
       <r>   -25.5167     0.0000    12.0000 </r>
       <r>   -25.3644     0.0000    12.0000 </r>
       <r>   -25.2121     0.0000    12.0000 </r>
       <r>   -25.0599     0.0000    12.0000 </r>
       <r>   -24.9076     0.0000    12.0000 </r>
       <r>   -24.7554     0.0000    12.0000 </r>
       <r>   -24.6031     0.0000    12.0000 </r>
       <r>   -24.4509     0.0000    12.0000 </r>
       <r>   -24.2986     0.0000    12.0000 </r>
       <r>   -24.1464     0.0000    12.0000 </r>
       <r>   -23.9941     0.0000    12.0000 </r>
       <r>   -23.8418     0.0000    12.0000 </r>
       <r>   -23.6896     0.0000    12.0000 </r>
       <r>   -23.5373     0.0000    12.0000 </r>
       <r>   -23.3851     0.0000    12.0000 </r>
       <r>   -23.2328     0.0000    12.0000 </r>
       <r>   -23.0806     0.0000    12.0000 </r>
       <r>   -22.9283     0.0000    12.0000 </r>
       <r>   -22.7761     0.0000    12.0000 </r>
       <r>   -22.6238     0.0000    12.0000 </r>
       <r>   -22.4715     0.0000    12.0000 </r>
       <r>   -22.3193     0.0000    12.0000 </r>
       <r>   -22.1670     0.0000    12.0000 </r>
       <r>   -22.0148     0.0000    12.0000 </r>
       <r>   -21.8625     0.0000    12.0000 </r>
       <r>   -21.7103     0.0000    12.0000 </r>
       <r>   -21.5580     0.0000    12.0000 </r>
       <r>   -21.4058     0.0000    12.0000 </r>
       <r>   -21.2535     0.0000    12.0000 </r>
       <r>   -21.1012     0.0000    12.0000 </r>
       <r>   -20.9490     0.0000    12.0000 </r>
       <r>   -20.7967     0.0000    12.0000 </r>
       <r>   -20.6445     0.0000    12.0000 </r>
       <r>   -20.4922     0.0000    12.0000 </r>
       <r>   -20.3400     0.0000    12.0000 </r>
       <r>   -20.1877     0.0000    12.0000 </r>
       <r>   -20.0355     0.0000    12.0000 </r>
       <r>   -19.8832     0.0000    12.0000 </r>
       <r>   -19.7309     0.0000    12.0000 </r>
       <r>   -19.5787     0.0000    12.0000 </r>
       <r>   -19.4264     0.0000    12.0000 </r>
       <r>   -19.2742     0.0000    12.0000 </r>
       <r>   -19.1219     0.0000    12.0000 </r>
       <r>   -18.9697     0.0000    12.0000 </r>
       <r>   -18.8174     0.0000    12.0000 </r>
       <r>   -18.6652     0.0000    12.0000 </r>
       <r>   -18.5129     0.0000    12.0000 </r>
       <r>   -18.3606     0.0000    12.0000 </r>
       <r>   -18.2084     0.0000    12.0000 </r>
       <r>   -18.0561     0.0000    12.0000 </r>
       <r>   -17.9039     0.0000    12.0000 </r>
       <r>   -17.7516     0.0000    12.0000 </r>
       <r>   -17.5994     0.0000    12.0000 </r>
       <r>   -17.4471     0.0000    12.0000 </r>
       <r>   -17.2949     0.0000    12.0000 </r>
       <r>   -17.1426     0.0000    12.0000 </r>
       <r>   -16.9903     0.0000    12.0000 </r>
       <r>   -16.8381     0.0000    12.0000 </r>
       <r>   -16.6858     0.0000    12.0000 </r>
       <r>   -16.5336     0.0000    12.0000 </r>
       <r>   -16.3813     0.0000    12.0000 </r>
       <r>   -16.2291     0.0000    12.0000 </r>
       <r>   -16.0768     0.0000    12.0000 </r>
       <r>   -15.9246     0.0000    12.0000 </r>
       <r>   -15.7723     0.0000    12.0000 </r>
       <r>   -15.6200     0.0000    12.0000 </r>
       <r>   -15.4678     0.0000    12.0000 </r>
       <r>   -15.3155     0.0000    12.0000 </r>
       <r>   -15.1633     0.0000    12.0000 </r>
       <r>   -15.0110     0.0000    12.0000 </r>
       <r>   -14.8588     0.0000    12.0000 </r>
       <r>   -14.7065     0.0000    12.0000 </r>
       <r>   -14.5543     0.0000    12.0000 </r>
       <r>   -14.4020     0.0000    12.0000 </r>
       <r>   -14.2497     0.0000    12.0000 </r>
       <r>   -14.0975     0.0000    12.0000 </r>
       <r>   -13.9452     0.0000    12.0000 </r>
       <r>   -13.7930     0.0000    12.0000 </r>
       <r>   -13.6407     0.0000    12.0000 </r>
       <r>   -13.4885     0.0000    12.0000 </r>
       <r>   -13.3362     0.0000    12.0000 </r>
       <r>   -13.1840     0.0000    12.0000 </r>
       <r>   -13.0317     0.0000    12.0000 </r>
       <r>   -12.8794     0.0000    12.0000 </r>
       <r>   -12.7272     0.0000    12.0000 </r>
       <r>   -12.5749     0.0000    12.0000 </r>
       <r>   -12.4227     0.0000    12.0000 </r>
       <r>   -12.2704     0.0000    12.0000 </r>
       <r>   -12.1182     0.0000    12.0000 </r>
       <r>   -11.9659     0.0000    12.0000 </r>
       <r>   -11.8137     0.0000    12.0000 </r>
       <r>   -11.6614     0.0000    12.0000 </r>
       <r>   -11.5091     0.0000    12.0000 </r>
       <r>   -11.3569     0.0000    12.0000 </r>
       <r>   -11.2046     0.0000    12.0000 </r>
       <r>   -11.0524     0.0000    12.0000 </r>
       <r>   -10.9001     0.0000    12.0000 </r>
       <r>   -10.7479     0.0000    12.0000 </r>
       <r>   -10.5956     0.0000    12.0000 </r>
       <r>   -10.4434     0.0000    12.0000 </r>
       <r>   -10.2911     0.0000    12.0000 </r>
       <r>   -10.1388     0.0000    12.0000 </r>
       <r>    -9.9866     0.0000    12.0000 </r>
       <r>    -9.8343     0.0000    12.0000 </r>
       <r>    -9.6821     0.0000    12.0000 </r>
       <r>    -9.5298     0.0000    12.0000 </r>
       <r>    -9.3776     0.0000    12.0000 </r>
       <r>    -9.2253     0.0000    12.0000 </r>
       <r>    -9.0731     0.0000    12.0000 </r>
       <r>    -8.9208     0.0000    12.0000 </r>
       <r>    -8.7685     0.0000    12.0000 </r>
       <r>    -8.6163     0.0000    12.0000 </r>
       <r>    -8.4640     0.0000    12.0000 </r>
       <r>    -8.3118     0.0000    12.0000 </r>
       <r>    -8.1595     0.0000    12.0000 </r>
       <r>    -8.0073     0.0000    12.0000 </r>
       <r>    -7.8550     0.0000    12.0000 </r>
       <r>    -7.7028     0.0000    12.0000 </r>
       <r>    -7.5505     0.0000    12.0000 </r>
       <r>    -7.3982     0.0000    12.0000 </r>
       <r>    -7.2460     0.0000    12.0000 </r>
       <r>    -7.0937     0.0000    12.0000 </r>
       <r>    -6.9415     0.0000    12.0000 </r>
       <r>    -6.7892     0.0000    12.0000 </r>
       <r>    -6.6370     0.0000    12.0000 </r>
       <r>    -6.4847     0.0000    12.0000 </r>
       <r>    -6.3325     0.0000    12.0000 </r>
       <r>    -6.1802     0.0000    12.0000 </r>
       <r>    -6.0279     0.0000    12.0000 </r>
       <r>    -5.8757     0.0000    12.0000 </r>
       <r>    -5.7234     0.0000    12.0000 </r>
       <r>    -5.5712     0.0000    12.0000 </r>
       <r>    -5.4189     0.0000    12.0000 </r>
       <r>    -5.2667     0.0000    12.0000 </r>
       <r>    -5.1144     0.0000    12.0000 </r>
       <r>    -4.9622     0.0000    12.0000 </r>
       <r>    -4.8099     0.0000    12.0000 </r>
       <r>    -4.6576     0.0000    12.0000 </r>
       <r>    -4.5054     0.0000    12.0000 </r>
       <r>    -4.3531    -0.0000    12.0000 </r>
       <r>    -4.2009    -0.0000    12.0000 </r>
       <r>    -4.0486    -0.0000    12.0000 </r>
       <r>    -3.8964    -0.0000    12.0000 </r>
       <r>    -3.7441    -0.0000    12.0000 </r>
       <r>    -3.5919    -0.0003    12.0000 </r>
       <r>    -3.4396     0.0048    12.0007 </r>
       <r>    -3.2873     0.0180    12.0034 </r>
       <r>    -3.1351     0.0960    12.0180 </r>
       <r>    -2.9828     0.1834    12.0460 </r>
       <r>    -2.8306     0.1244    12.0649 </r>
       <r>    -2.6783     0.0888    12.0784 </r>
       <r>    -2.5261     0.1362    12.0992 </r>
       <r>    -2.3738     0.4015    12.1603 </r>
       <r>    -2.2216     0.4026    12.2216 </r>
       <r>    -2.0693     0.0022    12.2219 </r>
       <r>    -1.9170     0.1853    12.2501 </r>
       <r>    -1.7648     0.4322    12.3159 </r>
       <r>    -1.6125     0.3906    12.3754 </r>
       <r>    -1.4603     0.4545    12.4446 </r>
       <r>    -1.3080     0.2676    12.4854 </r>
       <r>    -1.1558     0.4609    12.5556 </r>
       <r>    -1.0035     0.8245    12.6811 </r>
       <r>    -0.8513     0.0439    12.6878 </r>
       <r>    -0.6990     0.1387    12.7089 </r>
       <r>    -0.5467     1.0767    12.8728 </r>
       <r>    -0.3945     0.9404    13.0160 </r>
       <r>    -0.2422     0.5667    13.1023 </r>
       <r>    -0.0900     1.0756    13.2661 </r>
       <r>     0.0623     1.3104    13.4656 </r>
       <r>     0.2145     1.1180    13.6358 </r>
       <r>     0.3668     0.7733    13.7536 </r>
       <r>     0.5190     1.9054    14.0437 </r>
       <r>     0.6713     2.3558    14.4023 </r>
       <r>     0.8236     0.8103    14.5257 </r>
       <r>     0.9758     1.5580    14.7629 </r>
       <r>     1.1281     1.2755    14.9571 </r>
       <r>     1.2803     2.1406    15.2830 </r>
       <r>     1.4326     2.6075    15.6800 </r>
       <r>     1.5848     2.5290    16.0651 </r>
       <r>     1.7371     0.6188    16.1593 </r>
       <r>     1.8893     0.7023    16.2662 </r>
       <r>     2.0416     1.2874    16.4622 </r>
       <r>     2.1939     1.1076    16.6309 </r>
       <r>     2.3461     4.3214    17.2888 </r>
       <r>     2.4984     5.7014    18.1569 </r>
       <r>     2.6506     5.0499    18.9258 </r>
       <r>     2.8029     5.5982    19.7782 </r>
       <r>     2.9551     3.5857    20.3241 </r>
       <r>     3.1074     4.8370    21.0606 </r>
       <r>     3.2596     5.7944    21.9428 </r>
       <r>     3.4119     2.7621    22.3633 </r>
       <r>     3.5642     2.9910    22.8187 </r>
       <r>     3.7164     2.3032    23.1694 </r>
       <r>     3.8687     1.8624    23.4530 </r>
       <r>     4.0209     1.1648    23.6303 </r>
       <r>     4.1732     0.3461    23.6830 </r>
       <r>     4.3254     0.4441    23.7506 </r>
       <r>     4.4777     0.5378    23.8325 </r>
       <r>     4.6299     1.8758    24.1181 </r>
       <r>     4.7822     1.4329    24.3363 </r>
       <r>     4.9345     1.6114    24.5816 </r>
       <r>     5.0867     0.9419    24.7250 </r>
       <r>     5.2390     2.3996    25.0904 </r>
       <r>     5.3912     3.3145    25.5950 </r>
       <r>     5.5435     2.0045    25.9002 </r>
       <r>     5.6957     3.4515    26.4257 </r>
       <r>     5.8480     2.0759    26.7418 </r>
       <r>     6.0002     4.7961    27.4720 </r>
       <r>     6.1525     2.9645    27.9234 </r>
       <r>     6.3048     3.1083    28.3966 </r>
       <r>     6.4570     4.2727    29.0472 </r>
       <r>     6.6093     7.3500    30.1663 </r>
       <r>     6.7615    10.3042    31.7351 </r>
       <r>     6.9138     2.2533    32.0782 </r>
       <r>     7.0660     1.6221    32.3252 </r>
       <r>     7.2183     3.8263    32.9078 </r>
       <r>     7.3705     1.8810    33.1942 </r>
       <r>     7.5228     0.5232    33.2738 </r>
       <r>     7.6751     0.3682    33.3299 </r>
       <r>     7.8273     0.4075    33.3919 </r>
       <r>     7.9796     2.0508    33.7042 </r>
       <r>     8.1318     2.9524    34.1537 </r>
       <r>     8.2841     1.0058    34.3069 </r>
       <r>     8.4363     0.3418    34.3589 </r>
       <r>     8.5886     0.5077    34.4362 </r>
       <r>     8.7408     1.2605    34.6281 </r>
       <r>     8.8931     1.4335    34.8464 </r>
       <r>     9.0454     2.2682    35.1917 </r>
       <r>     9.1976     0.8851    35.3265 </r>
       <r>     9.3499     0.4320    35.3923 </r>
       <r>     9.5021     0.3890    35.4515 </r>
       <r>     9.6544     2.0820    35.7685 </r>
       <r>     9.8066     0.9718    35.9165 </r>
       <r>     9.9589    -0.0085    35.9152 </r>
       <r>    10.1111     0.4271    35.9802 </r>
       <r>    10.2634     0.1341    36.0006 </r>
       <r>    10.4157    -0.0039    36.0000 </r>
       <r>    10.5679    -0.0002    36.0000 </r>
       <r>    10.7202    -0.0000    36.0000 </r>
       <r>    10.8724    -0.0000    36.0000 </r>
       <r>    11.0247     0.0000    36.0000 </r>
       <r>    11.1769     0.0000    36.0000 </r>
       <r>    11.3292     0.0000    36.0000 </r>
       <r>    11.4814     0.0000    36.0000 </r>
       <r>    11.6337     0.0000    36.0000 </r>
       <r>    11.7859     0.0000    36.0000 </r>
       <r>    11.9382     0.0000    36.0000 </r>
       <r>    12.0905     0.0000    36.0000 </r>
       <r>    12.2427     0.0000    36.0000 </r>
      </set>
     </set>
    </array>
   </total>
  </dos>
 </calculation>
 <structure name="finalpos" >
  <crystal>
   <varray name="basis" >
    <v>       3.65350009       0.00000000       0.00000000 </v>
    <v>       0.00000000       3.65350009       0.00000000 </v>
    <v>       0.00000000       0.00000000       3.65350009 </v>
   </varray>
   <i name="volume">     48.76714891 </i>
   <varray name="rec_basis" >
    <v>       0.27371013      -0.00000000       0.00000000 </v>
    <v>       0.00000000       0.27371013       0.00000000 </v>
    <v>      -0.00000000      -0.00000000       0.27371013 </v>
   </varray>
  </crystal>
  <varray name="positions" >
   <v>       0.00000000       0.00000000       0.00000000 </v>
   <v>       0.50000000       0.50000000       0.50000000 </v>
  </varray>
 </structure>
</modeling>
