unknown system                          
           1
     3.653500    0.000000    0.000000
     0.000000    3.653500    0.000000
     0.000000    0.000000    3.653500
   Ta
     2
Direct configuration=     1
   0.00000000  0.00000000  0.00000000
   0.50000000  0.50000000  0.50000000
