  72  72   0   0
  0.1915830E+02  0.1011386E-08  0.1011386E-08  0.1348515E-08  0.5000000E-15
  1.000000000000000E-004
  CAR 
 unknown system                          
      9.82629204    -31.98094567  301      5.23635050      1.00000000
    -31.981  0.0000E+00  0.0000E+00
    -31.842  0.0000E+00  0.0000E+00
    -31.702  0.0000E+00  0.0000E+00
    -31.563  0.0000E+00  0.0000E+00
    -31.424  0.0000E+00  0.0000E+00
    -31.284  0.0000E+00  0.0000E+00
    -31.145  0.0000E+00  0.0000E+00
    -31.005 -0.2587E-35 -0.3606E-36
    -30.866 -0.4958E-25 -0.6909E-26
    -30.727 -0.1892E-16 -0.2637E-17
    -30.587 -0.1362E-09 -0.1899E-10
    -30.448 -0.1872E-04 -0.2608E-05
    -30.309 -0.4157E-01 -0.5795E-02
    -30.169 -0.1361E+00 -0.2476E-01
    -30.030  0.1259E+02  0.1729E+01
    -29.891  0.1466E+02  0.3772E+01
    -29.751  0.7645E+00  0.3879E+01
    -29.612  0.1633E+02  0.6154E+01
    -29.473  0.7469E+02  0.1656E+02
    -29.333  0.1381E+03  0.3581E+02
    -29.194  0.2430E+03  0.6967E+02
    -29.054  0.3230E+03  0.1147E+03
    -28.915  0.3119E+03  0.1581E+03
    -28.776  0.3015E+03  0.2002E+03
    -28.636  0.3322E+03  0.2465E+03
    -28.497  0.3093E+03  0.2896E+03
    -28.358  0.2690E+03  0.3270E+03
    -28.218  0.2669E+03  0.3642E+03
    -28.079  0.1960E+03  0.3916E+03
    -27.940  0.1200E+03  0.4083E+03
    -27.800  0.7203E+02  0.4183E+03
    -27.661  0.2997E+02  0.4225E+03
    -27.522  0.4330E+02  0.4285E+03
    -27.382  0.2055E+02  0.4314E+03
    -27.243  0.4653E+01  0.4320E+03
    -27.103 -0.3541E+00  0.4320E+03
    -26.964 -0.1646E-02  0.4320E+03
    -26.825 -0.9563E-07  0.4320E+03
    -26.685 -0.9879E-13  0.4320E+03
    -26.546  0.0000E+00  0.4320E+03
    -26.407  0.0000E+00  0.4320E+03
    -26.267  0.0000E+00  0.4320E+03
    -26.128  0.0000E+00  0.4320E+03
    -25.989  0.0000E+00  0.4320E+03
    -25.849  0.0000E+00  0.4320E+03
    -25.710  0.0000E+00  0.4320E+03
    -25.571  0.0000E+00  0.4320E+03
    -25.431  0.0000E+00  0.4320E+03
    -25.292  0.0000E+00  0.4320E+03
    -25.152  0.0000E+00  0.4320E+03
    -25.013  0.0000E+00  0.4320E+03
    -24.874  0.0000E+00  0.4320E+03
    -24.734  0.0000E+00  0.4320E+03
    -24.595  0.0000E+00  0.4320E+03
    -24.456  0.0000E+00  0.4320E+03
    -24.316  0.0000E+00  0.4320E+03
    -24.177  0.0000E+00  0.4320E+03
    -24.038  0.0000E+00  0.4320E+03
    -23.898  0.0000E+00  0.4320E+03
    -23.759  0.0000E+00  0.4320E+03
    -23.619  0.0000E+00  0.4320E+03
    -23.480  0.0000E+00  0.4320E+03
    -23.341  0.0000E+00  0.4320E+03
    -23.201  0.0000E+00  0.4320E+03
    -23.062  0.0000E+00  0.4320E+03
    -22.923  0.0000E+00  0.4320E+03
    -22.783  0.0000E+00  0.4320E+03
    -22.644  0.0000E+00  0.4320E+03
    -22.505  0.0000E+00  0.4320E+03
    -22.365  0.0000E+00  0.4320E+03
    -22.226  0.0000E+00  0.4320E+03
    -22.087  0.0000E+00  0.4320E+03
    -21.947  0.0000E+00  0.4320E+03
    -21.808  0.0000E+00  0.4320E+03
    -21.668  0.0000E+00  0.4320E+03
    -21.529  0.0000E+00  0.4320E+03
    -21.390  0.0000E+00  0.4320E+03
    -21.250  0.0000E+00  0.4320E+03
    -21.111  0.0000E+00  0.4320E+03
    -20.972  0.0000E+00  0.4320E+03
    -20.832  0.0000E+00  0.4320E+03
    -20.693  0.0000E+00  0.4320E+03
    -20.554  0.0000E+00  0.4320E+03
    -20.414  0.0000E+00  0.4320E+03
    -20.275  0.0000E+00  0.4320E+03
    -20.136  0.0000E+00  0.4320E+03
    -19.996  0.0000E+00  0.4320E+03
    -19.857  0.0000E+00  0.4320E+03
    -19.717  0.0000E+00  0.4320E+03
    -19.578  0.0000E+00  0.4320E+03
    -19.439  0.0000E+00  0.4320E+03
    -19.299  0.0000E+00  0.4320E+03
    -19.160  0.0000E+00  0.4320E+03
    -19.021  0.0000E+00  0.4320E+03
    -18.881  0.0000E+00  0.4320E+03
    -18.742  0.0000E+00  0.4320E+03
    -18.603  0.0000E+00  0.4320E+03
    -18.463  0.0000E+00  0.4320E+03
    -18.324  0.0000E+00  0.4320E+03
    -18.185  0.0000E+00  0.4320E+03
    -18.045  0.0000E+00  0.4320E+03
    -17.906  0.0000E+00  0.4320E+03
    -17.766  0.0000E+00  0.4320E+03
    -17.627  0.0000E+00  0.4320E+03
    -17.488  0.0000E+00  0.4320E+03
    -17.348  0.0000E+00  0.4320E+03
    -17.209  0.0000E+00  0.4320E+03
    -17.070  0.0000E+00  0.4320E+03
    -16.930  0.0000E+00  0.4320E+03
    -16.791  0.0000E+00  0.4320E+03
    -16.652  0.0000E+00  0.4320E+03
    -16.512  0.0000E+00  0.4320E+03
    -16.373  0.0000E+00  0.4320E+03
    -16.234  0.0000E+00  0.4320E+03
    -16.094  0.0000E+00  0.4320E+03
    -15.955  0.0000E+00  0.4320E+03
    -15.815  0.0000E+00  0.4320E+03
    -15.676  0.0000E+00  0.4320E+03
    -15.537  0.0000E+00  0.4320E+03
    -15.397  0.0000E+00  0.4320E+03
    -15.258  0.0000E+00  0.4320E+03
    -15.119  0.0000E+00  0.4320E+03
    -14.979  0.0000E+00  0.4320E+03
    -14.840  0.0000E+00  0.4320E+03
    -14.701  0.0000E+00  0.4320E+03
    -14.561  0.0000E+00  0.4320E+03
    -14.422  0.0000E+00  0.4320E+03
    -14.283  0.0000E+00  0.4320E+03
    -14.143  0.0000E+00  0.4320E+03
    -14.004  0.0000E+00  0.4320E+03
    -13.864  0.0000E+00  0.4320E+03
    -13.725  0.0000E+00  0.4320E+03
    -13.586  0.0000E+00  0.4320E+03
    -13.446  0.0000E+00  0.4320E+03
    -13.307  0.0000E+00  0.4320E+03
    -13.168  0.0000E+00  0.4320E+03
    -13.028  0.0000E+00  0.4320E+03
    -12.889  0.0000E+00  0.4320E+03
    -12.750  0.0000E+00  0.4320E+03
    -12.610  0.0000E+00  0.4320E+03
    -12.471  0.0000E+00  0.4320E+03
    -12.332  0.0000E+00  0.4320E+03
    -12.192  0.0000E+00  0.4320E+03
    -12.053  0.0000E+00  0.4320E+03
    -11.913  0.0000E+00  0.4320E+03
    -11.774  0.0000E+00  0.4320E+03
    -11.635  0.0000E+00  0.4320E+03
    -11.495  0.0000E+00  0.4320E+03
    -11.356  0.0000E+00  0.4320E+03
    -11.217  0.0000E+00  0.4320E+03
    -11.077  0.0000E+00  0.4320E+03
    -10.938  0.0000E+00  0.4320E+03
    -10.799  0.0000E+00  0.4320E+03
    -10.659  0.0000E+00  0.4320E+03
    -10.520  0.0000E+00  0.4320E+03
    -10.381  0.0000E+00  0.4320E+03
    -10.241  0.0000E+00  0.4320E+03
    -10.102  0.0000E+00  0.4320E+03
     -9.962  0.0000E+00  0.4320E+03
     -9.823  0.0000E+00  0.4320E+03
     -9.684  0.0000E+00  0.4320E+03
     -9.544  0.0000E+00  0.4320E+03
     -9.405  0.0000E+00  0.4320E+03
     -9.266  0.0000E+00  0.4320E+03
     -9.126  0.0000E+00  0.4320E+03
     -8.987  0.0000E+00  0.4320E+03
     -8.848  0.0000E+00  0.4320E+03
     -8.708  0.0000E+00  0.4320E+03
     -8.569  0.0000E+00  0.4320E+03
     -8.430  0.0000E+00  0.4320E+03
     -8.290  0.0000E+00  0.4320E+03
     -8.151  0.0000E+00  0.4320E+03
     -8.011  0.0000E+00  0.4320E+03
     -7.872  0.0000E+00  0.4320E+03
     -7.733  0.0000E+00  0.4320E+03
     -7.593  0.0000E+00  0.4320E+03
     -7.454  0.0000E+00  0.4320E+03
     -7.315  0.0000E+00  0.4320E+03
     -7.175  0.0000E+00  0.4320E+03
     -7.036  0.0000E+00  0.4320E+03
     -6.897  0.0000E+00  0.4320E+03
     -6.757  0.0000E+00  0.4320E+03
     -6.618  0.0000E+00  0.4320E+03
     -6.479  0.0000E+00  0.4320E+03
     -6.339  0.0000E+00  0.4320E+03
     -6.200  0.0000E+00  0.4320E+03
     -6.060  0.0000E+00  0.4320E+03
     -5.921  0.0000E+00  0.4320E+03
     -5.782  0.0000E+00  0.4320E+03
     -5.642  0.0000E+00  0.4320E+03
     -5.503  0.0000E+00  0.4320E+03
     -5.364  0.0000E+00  0.4320E+03
     -5.224  0.0000E+00  0.4320E+03
     -5.085  0.0000E+00  0.4320E+03
     -4.946  0.0000E+00  0.4320E+03
     -4.806  0.0000E+00  0.4320E+03
     -4.667  0.0000E+00  0.4320E+03
     -4.528  0.0000E+00  0.4320E+03
     -4.388  0.0000E+00  0.4320E+03
     -4.249  0.0000E+00  0.4320E+03
     -4.109  0.0000E+00  0.4320E+03
     -3.970  0.0000E+00  0.4320E+03
     -3.831  0.0000E+00  0.4320E+03
     -3.691  0.0000E+00  0.4320E+03
     -3.552 -0.3741E-37  0.4320E+03
     -3.413 -0.7579E-27  0.4320E+03
     -3.273 -0.3059E-18  0.4320E+03
     -3.134 -0.2330E-11  0.4320E+03
     -2.995 -0.3390E-06  0.4320E+03
     -2.855 -0.8015E-03  0.4320E+03
     -2.716 -0.7095E-02  0.4320E+03
     -2.577  0.2234E+00  0.4320E+03
     -2.437  0.1509E+01  0.4322E+03
     -2.298  0.3319E+01  0.4327E+03
     -2.158  0.2681E+01  0.4331E+03
     -2.019  0.1837E+01  0.4333E+03
     -1.880  0.6322E+01  0.4342E+03
     -1.740  0.7251E+01  0.4352E+03
     -1.601  0.1570E+01  0.4354E+03
     -1.462  0.4293E+01  0.4360E+03
     -1.322  0.8508E+01  0.4372E+03
     -1.183  0.8850E+01  0.4385E+03
     -1.044  0.6333E+01  0.4393E+03
     -0.904  0.7287E+01  0.4404E+03
     -0.765  0.1265E+02  0.4421E+03
     -0.626  0.2653E+01  0.4425E+03
     -0.486  0.8699E+01  0.4437E+03
     -0.347  0.1752E+02  0.4461E+03
     -0.207  0.1247E+02  0.4479E+03
     -0.068  0.1256E+02  0.4496E+03
      0.071  0.1205E+02  0.4513E+03
      0.211  0.1353E+02  0.4532E+03
      0.350  0.1416E+02  0.4552E+03
      0.489  0.1665E+02  0.4575E+03
      0.629  0.2922E+02  0.4616E+03
      0.768  0.2984E+02  0.4657E+03
      0.907  0.3400E+02  0.4705E+03
      1.047  0.4496E+02  0.4767E+03
      1.186  0.4470E+02  0.4830E+03
      1.325  0.5785E+02  0.4910E+03
      1.465  0.6019E+02  0.4994E+03
      1.604  0.5788E+02  0.5075E+03
      1.744  0.5865E+02  0.5156E+03
      1.883  0.5966E+02  0.5240E+03
      2.022  0.7320E+02  0.5342E+03
      2.162  0.7113E+02  0.5441E+03
      2.301  0.7112E+02  0.5540E+03
      2.440  0.6484E+02  0.5630E+03
      2.580  0.5973E+02  0.5713E+03
      2.719  0.6268E+02  0.5801E+03
      2.858  0.6040E+02  0.5885E+03
      2.998  0.5864E+02  0.5967E+03
      3.137  0.6763E+02  0.6061E+03
      3.276  0.7982E+02  0.6172E+03
      3.416  0.8838E+02  0.6295E+03
      3.555  0.9019E+02  0.6421E+03
      3.695  0.9214E+02  0.6549E+03
      3.834  0.9035E+02  0.6675E+03
      3.973  0.8997E+02  0.6801E+03
      4.113  0.9143E+02  0.6928E+03
      4.252  0.8871E+02  0.7052E+03
      4.391  0.9162E+02  0.7179E+03
      4.531  0.9237E+02  0.7308E+03
      4.670  0.9055E+02  0.7434E+03
      4.809  0.8621E+02  0.7554E+03
      4.949  0.8682E+02  0.7675E+03
      5.088  0.8781E+02  0.7798E+03
      5.227  0.8261E+02  0.7913E+03
      5.367  0.8049E+02  0.8025E+03
      5.506  0.7276E+02  0.8127E+03
      5.646  0.6665E+02  0.8219E+03
      5.785  0.6442E+02  0.8309E+03
      5.924  0.6409E+02  0.8399E+03
      6.064  0.5906E+02  0.8481E+03
      6.203  0.5850E+02  0.8562E+03
      6.342  0.5288E+02  0.8636E+03
      6.482  0.5499E+02  0.8713E+03
      6.621  0.5598E+02  0.8791E+03
      6.760  0.5687E+02  0.8870E+03
      6.900  0.5832E+02  0.8951E+03
      7.039  0.5836E+02  0.9033E+03
      7.179  0.5967E+02  0.9116E+03
      7.318  0.5836E+02  0.9197E+03
      7.457  0.5943E+02  0.9280E+03
      7.597  0.6110E+02  0.9365E+03
      7.736  0.6182E+02  0.9451E+03
      7.875  0.4440E+02  0.9513E+03
      8.015  0.5486E+01  0.9521E+03
      8.154 -0.4611E+00  0.9520E+03
      8.293 -0.3755E-02  0.9520E+03
      8.433 -0.9517E-06  0.9520E+03
      8.572 -0.6074E-11  0.9520E+03
      8.711  0.0000E+00  0.9520E+03
      8.851  0.0000E+00  0.9520E+03
      8.990  0.0000E+00  0.9520E+03
      9.130  0.0000E+00  0.9520E+03
      9.269  0.0000E+00  0.9520E+03
      9.408  0.0000E+00  0.9520E+03
      9.548  0.0000E+00  0.9520E+03
      9.687  0.0000E+00  0.9520E+03
      9.826  0.0000E+00  0.9520E+03
