       N       E                     dE             d eps       ncg     rms          rms(c)
DAV:   1     0.900593495391E+04    0.90059E+04   -0.43137E+05 24752   0.173E+03
DAV:   2    -0.243345213696E+03   -0.92493E+04   -0.90087E+04 24760   0.538E+02
DAV:   3    -0.818155069051E+03   -0.57481E+03   -0.53198E+03 31180   0.111E+02
DAV:   4    -0.852740485001E+03   -0.34585E+02   -0.32365E+02 29600   0.204E+01
DAV:   5    -0.854401410751E+03   -0.16609E+01   -0.16350E+01 31472   0.383E+00    0.111E+02
DAV:   6    -0.835402167976E+03    0.18999E+02   -0.99146E+01 31592   0.267E+01    0.585E+01
DAV:   7    -0.911372490429E+03   -0.75970E+02   -0.27300E+02 35228   0.439E+01    0.475E+01
DAV:   8    -0.831338326146E+03    0.80034E+02   -0.24829E+02 35928   0.279E+01    0.210E+01
DAV:   9    -0.817013186303E+03    0.14325E+02   -0.85303E+01 31568   0.150E+01    0.795E+00
DAV:  10    -0.816723570610E+03    0.28962E+00   -0.14363E+01 30312   0.700E+00    0.548E+00
DAV:  11    -0.816711473259E+03    0.12097E-01   -0.14969E+00 28928   0.229E+00    0.404E+00
DAV:  12    -0.816740165281E+03   -0.28692E-01   -0.38645E-01 32576   0.192E+00    0.327E+00
DAV:  13    -0.816674789119E+03    0.65376E-01   -0.40648E-01 32632   0.213E+00    0.198E+00
DAV:  14    -0.816620228248E+03    0.54561E-01   -0.30391E-01 30760   0.166E+00    0.774E-01
DAV:  15    -0.816612374001E+03    0.78542E-02   -0.87649E-02 30328   0.791E-01    0.504E-01
DAV:  16    -0.816611267157E+03    0.11068E-02   -0.16513E-02 29928   0.293E-01    0.387E-01
DAV:  17    -0.816610552439E+03    0.71472E-03   -0.48677E-03 29856   0.153E-01    0.219E-01
DAV:  18    -0.816610339300E+03    0.21314E-03   -0.30398E-03 29720   0.145E-01    0.902E-02
DAV:  19    -0.816610237217E+03    0.10208E-03   -0.94401E-04 29960   0.947E-02    0.517E-02
DAV:  20    -0.816610204794E+03    0.32423E-04   -0.21243E-04 26152   0.434E-02    0.323E-02
DAV:  21    -0.816610193845E+03    0.10949E-04   -0.65368E-05 23840   0.232E-02    0.206E-02
DAV:  22    -0.816610185863E+03    0.79819E-05   -0.17949E-05 16568   0.132E-02
   1 F= -.81661019E+03 E0= -.81661196E+03  d E =0.532948E-02
