 vasp.6.3.2 27Jun22 (build Feb 01 2023 14:57:41) complex                        
  
 executed on             LinuxIFC date 2023.11.30  00:47:41
 running on    4 total cores
 distrk:  each k-point on    4 cores,    1 groups
 distr:  one band on NCORE=   1 cores,    4 groups


--------------------------------------------------------------------------------------------------------


 INCAR:
   ALGO = normal
   EDIFF = 1E-5
   KSPACING = 0.20000
   LASPH = .TRUE.
   ENCUT = 520
   ISIF = 2
   ISMEAR = 1
   LREAL = Auto
   LWAVE = False
   LCHARG = .FALSE.
   NELM = 400
   NSW = 0
   PREC = Accurate
   SIGMA = 0.1
   NPAR = 6

 POTCAR:    PAW_PBE Ta_pv 07Sep2000               
 POTCAR:    PAW_PBE Ta_pv 07Sep2000               
   SHA256 =  00d0a14a36c127416459414afb8617d9754996fffa60a2465888e660b20a452f Ta_pv/POTCAR          
   COPYR  = (c) Copyright 07Sep2000 Georg Kresse                                                    
   COPYR  = This file is part of the software VASP. Any use, copying, and all other rights are regul
   COPYR  = If you do not have a valid VASP license, you may not use, copy or distribute this file. 
   VRHFIN =Ta:  5p6s5d                                                                              
   LEXCH  = PE                                                                                      
   EATOM  =  1047.1984 eV,   76.9669 Ry                                                             
                                                                                                    
   TITEL  = PAW_PBE Ta_pv 07Sep2000                                                                 
   LULTRA =        F    use ultrasoft PP ?                                                          
   IUNSCR =        1    unscreen: 0-lin 1-nonlin 2-no                                               
   RPACOR =    2.330    partial core radius                                                         
   POMASS =  180.948; ZVAL   =   11.000    mass and valenz                                          
   RCORE  =    2.500    outmost cutoff radius                                                       
   RWIGS  =    2.840; RWIGS  =    1.503    wigner-seitz radius (au A)                               
   ENMAX  =  223.667; ENMIN  =  167.750 eV                                                          
   RCLOC  =    2.205    cutoff for local pot                                                        
   LCOR   =        T    correct aug charges                                                         
   LPAW   =        T    paw PP                                                                      
   EAUG   =  377.421                                                                                
   DEXC   =    0.000                                                                                
   RMAX   =    2.551    core radius for proj-oper                                                   
   RAUG   =    1.300    factor for augmentation sphere                                              
   RDEP   =    2.526    radius for radial grids                                                     
   RDEPT  =    2.132    core radius for aug-charge                                                  
                                                                                                    
   Atomic configuration                                                                             
   15 entries                                                                                       
     n  l   j            E        occ.                                                              
     1  0  0.50    -67341.2801   2.0000                                                             
     2  0  0.50    -11566.9369   2.0000                                                             
     2  1  1.50    -10134.1175   6.0000                                                             
     3  0  0.50     -2648.5614   2.0000                                                             
     3  1  1.50     -2222.6006   6.0000                                                             
     3  2  2.50     -1726.3114  10.0000                                                             
     4  0  0.50      -538.6957   2.0000                                                             
     4  1  1.50      -399.0125   6.0000                                                             
     4  2  2.50      -220.3955  10.0000                                                             
     4  3  3.50       -23.0371  14.0000                                                             
     5  0  0.50       -71.2900   2.0000                                                             
     5  1  1.50       -37.8224   6.0000                                                             
     5  2  2.50        -2.6455   4.0000                                                             
     6  0  0.50        -4.9623   1.0000                                                             
     5  3  2.50        -1.3606   0.0000                                                             
   Description                                                                                      
     l       E           TYP  RCUT    TYP  RCUT                                                     
     1    -37.8224449     23  2.500                                                                 
     1      1.3605826     23  2.500                                                                 
     2     -2.6454718     23  2.500                                                                 
     2     -0.6258570     23  2.500                                                                 
     0     -4.9622674     23  2.500                                                                 
     0      4.7531427     23  2.500                                                                 
  local pseudopotential read in
  partial core-charges read in
  partial kinetic energy density read in
  atomic valenz-charges read in
  non local Contribution for L=           1  read in
    real space projection operators read in
  non local Contribution for L=           1  read in
    real space projection operators read in
  non local Contribution for L=           2  read in
    real space projection operators read in
  non local Contribution for L=           2  read in
    real space projection operators read in
  non local Contribution for L=           0  read in
    real space projection operators read in
  non local Contribution for L=           0  read in
    real space projection operators read in
    PAW grid and wavefunctions read in
 
   number of l-projection  operators is LMAX  =           6
   number of lm-projection operators is LMMAX =          18
 
 Optimization of the real space projectors (new method)

 maximal supplied QI-value         = 15.12
 optimisation between [QCUT,QGAM] = [ 11.64, 23.28] = [ 37.95,151.78] Ry 
 Optimized for a Real-space Cutoff    1.58 Angstroem

   l    n(q)    QCUT    max X(q) W(low)/X(q) W(high)/X(q)  e(spline) 
   1     11    11.641     4.092    0.14E-04    0.12E-05    0.47E-07
   1     11    11.641     4.834    0.39E-04    0.18E-04    0.22E-06
   2     10    11.641    62.294    0.58E-04    0.39E-03    0.13E-05
   2     10    11.641    50.966    0.58E-04    0.39E-03    0.13E-05
   0     11    11.641   103.792    0.30E-04    0.35E-04    0.21E-06
   0     11    11.641    56.335    0.22E-04    0.32E-04    0.20E-06
  PAW_PBE Ta_pv 07Sep2000               :
 energy of atom  1       EATOM=-1047.1984
 kinetic energy error for atom=    0.0016 (will be added to EATOM!!)
 
 
 POSCAR: POSCAR file written by OVITO Basic 3.7.1
  positions in direct lattice
  No initial velocities read in
 exchange correlation table for  LEXCH =        8
   RHO(1)=    0.500       N(1)  =     2000
   RHO(2)=  100.500       N(2)  =     4000
 


--------------------------------------------------------------------------------------------------------


 ion  position               nearest neighbor table
   1  0.993  0.988  0.023-  69 2.58  61 2.61  72 2.85  14 2.90  21 2.93  24 3.02   8 3.05   2 3.25
                             9 3.27  38 3.28  64 3.43   3 3.51
   2  0.228  0.151  0.132-  29 2.38  30 2.47  25 2.96  37 2.97  21 3.00  10 3.01  26 3.07   3 3.16
                             1 3.25   9 3.39   8 3.48   4 3.54
   3  0.023  0.025  0.280-  62 2.77   5 2.86   4 2.88  70 2.90  69 2.93  22 2.95  61 3.02  21 3.03
                             2 3.16  10 3.22  40 3.44   1 3.51
   4  0.199  0.192  0.392-  30 2.68  31 2.81  27 2.82   3 2.88   5 2.90  26 2.92  11 3.01  10 3.02
                            15 3.06   6 3.06  39 3.25   2 3.54
   5  0.995  0.040  0.491-  70 2.67   6 2.75  62 2.75   3 2.86   4 2.90  63 2.93   7 2.98  23 3.01
                            11 3.04  27 3.33  71 3.34  22 3.44
   6  0.169  0.164  0.617-   7 2.68   5 2.75  27 2.83  31 2.91  28 3.01  41 3.02  32 3.03  11 3.04
                             4 3.06  12 3.11  17 3.25   8 3.53
   7  0.971  0.041  0.711-   6 2.68  63 2.70  64 2.89  23 2.93  72 2.94  71 2.97  12 2.98   5 2.98
                             8 3.17  44 3.37  24 3.46
   8  0.169  0.137  0.878-  32 2.71  29 2.74  25 2.75   9 2.88  12 2.99  28 3.00   1 3.05  24 3.06
                             7 3.17  43 3.46   2 3.48   6 3.53
   9  0.999  0.308  0.991-  65 2.86  61 2.87   8 2.88  68 2.90  19 3.04  12 3.05  64 3.05  29 3.08
                            13 3.18   1 3.27  45 3.30  10 3.33   2 3.39
  10  0.041  0.337  0.235-  13 2.68  65 2.88  15 2.98   2 3.01   4 3.02  66 3.04  61 3.10  30 3.14
                            62 3.16   3 3.22   9 3.33  16 3.47  11 3.59
  11  0.983  0.339  0.498-  63 2.73  62 2.79  18 2.90  66 2.99   4 3.01  17 3.03   5 3.04   6 3.04
                            15 3.19  67 3.20  47 3.29  31 3.53  10 3.59
  12  0.997  0.325  0.765-  64 2.85  17 2.88  19 2.93   7 2.98   8 2.99   9 3.05   6 3.11  32 3.14
                            63 3.18  68 3.19  67 3.25  48 3.26  20 3.42
  13  0.166  0.512  0.120-  33 2.62  10 2.68  14 2.80  29 2.99  34 3.05  16 3.05  65 3.15   9 3.18
                            19 3.26  30 3.35  15 3.48  21 3.51  49 3.53
  14  0.020  0.702  0.015-  69 2.70  24 2.73  13 2.80   1 2.90  19 2.91  21 2.93  72 3.04  65 3.08
                            33 3.13  16 3.14  68 3.23  20 3.44
  15  0.204  0.494  0.376-  35 2.44  18 2.53  31 2.66  34 2.77  10 2.98  30 3.03   4 3.06  22 3.14
                            11 3.19  51 3.40  16 3.45  13 3.48  17 3.59
  16  0.972  0.673  0.244-  69 2.28  66 2.61  70 2.80  65 2.81  22 2.93  52 2.98  13 3.05  14 3.14
                            21 3.21  18 3.37  15 3.45  10 3.47
  17  0.164  0.484  0.640-  31 2.61  18 2.78  32 2.85  12 2.88  36 2.98  35 3.01  53 3.02  11 3.03
                            20 3.12  19 3.23   6 3.25  23 3.41  15 3.59  67 3.59
  18  0.043  0.619  0.485-  15 2.53  23 2.68  17 2.78  22 2.79  35 2.89  11 2.90  70 2.91  66 3.04
                            67 3.27  16 3.37  71 3.52
  19  0.148  0.521  0.878-  36 2.66  20 2.74  33 2.88  14 2.91  32 2.91  12 2.93   9 3.04  24 3.19
                            17 3.23  29 3.24  13 3.26  68 3.38
  20  0.974  0.663  0.764-  72 2.61  67 2.73  19 2.74  23 2.81  24 2.84  71 2.93  68 3.00  17 3.12
                            12 3.42  14 3.44  36 3.48  56 3.52
  21  0.193  0.857  0.145-   1 2.93  14 2.93   2 3.00  33 3.03   3 3.03  22 3.03  57 3.05  34 3.06
                            25 3.07  69 3.18  16 3.21  26 3.28  13 3.51
  22  0.173  0.802  0.366-  18 2.79  34 2.83  35 2.88  16 2.93   3 2.95  70 2.97  27 2.99  21 3.03
                            15 3.14  26 3.22  58 3.32   5 3.44  23 3.46
  23  0.095  0.813  0.615-  18 2.68  71 2.77  20 2.81   7 2.93   5 3.01  27 3.27  28 3.41  17 3.41
                            35 3.42  36 3.44  22 3.46  24 3.46  70 3.59
  24  0.147  0.836  0.868-  14 2.73  36 2.77  20 2.84  72 2.85  25 2.94  28 2.99   1 3.02   8 3.06
                            19 3.19  33 3.21  60 3.38  23 3.46   7 3.46
  25  0.351  0.984  0.976-   8 2.75  60 2.85  37 2.87  24 2.94   2 2.96  57 2.97  43 2.98  21 3.07
                            28 3.21  29 3.24  38 3.35  33 3.35
  26  0.390  0.017  0.296-  58 2.57  39 2.70  27 2.85   4 2.92  30 2.92  40 3.07   2 3.07  57 3.09
                            22 3.22  21 3.28  37 3.30  42 3.49
  27  0.320  0.987  0.500-  59 2.74  58 2.81   4 2.82   6 2.83  26 2.85  22 2.99  42 3.04  28 3.21
                            41 3.24  23 3.27  39 3.30   5 3.33  35 3.59
  28  0.338  0.980  0.738-  60 2.42  59 2.66  43 2.89  24 2.99   8 3.00   6 3.01  44 3.12  25 3.21
                            27 3.21  36 3.24  41 3.26  23 3.41  32 3.52
  29  0.303  0.298  0.006-   2 2.38   8 2.74  37 2.89  13 2.99   9 3.08  55 3.11  32 3.12  25 3.24
                            19 3.24  30 3.29  43 3.32  49 3.42
  30  0.349  0.296  0.248-   2 2.47   4 2.68  39 2.82  26 2.92  15 3.03  37 3.06  10 3.14  49 3.23
                            46 3.23  29 3.29  13 3.35  51 3.47
  31  0.329  0.367  0.521-  41 2.31  17 2.61  53 2.65  15 2.66  35 2.71   4 2.81   6 2.91  51 3.01
                            39 3.02  47 3.34  32 3.47  11 3.53
  32  0.308  0.323  0.776-  53 2.71   8 2.71  43 2.77  41 2.82  17 2.85  19 2.91  55 3.00   6 3.03
                            29 3.12  12 3.14  36 3.45  31 3.47  28 3.52
  33  0.325  0.657  0.011-  13 2.62  49 2.84  19 2.88  50 2.90  57 2.94  21 3.03  55 3.05  14 3.13
                            24 3.21  36 3.22  34 3.33  25 3.35  60 3.38
  34  0.360  0.654  0.257-  15 2.77  49 2.79  57 2.81  22 2.83  58 2.90  51 3.05  13 3.05  21 3.06
                            35 3.19  52 3.23  33 3.33
  35  0.329  0.632  0.491-  15 2.44  31 2.71  51 2.82  59 2.85  22 2.88  18 2.89  58 2.93  17 3.01
                            53 3.08  34 3.19  23 3.42  54 3.48  27 3.59
  36  0.318  0.664  0.772-  60 2.42  19 2.66  53 2.72  24 2.77  17 2.98  59 3.01  56 3.16  55 3.19
                            33 3.22  28 3.24  23 3.44  32 3.45  20 3.48
  37  0.518  0.151  0.094-  45 2.67  25 2.87  29 2.89   2 2.97  38 3.04  30 3.06  40 3.13  46 3.18
                            57 3.27  26 3.30  61 3.35  43 3.37
  38  0.681  0.975  0.958-  72 2.57  64 2.63  50 2.82  43 2.98  37 3.04  60 3.09   1 3.28  61 3.33
                            57 3.35  25 3.35  44 3.53  69 3.59
  39  0.520  0.206  0.398-  47 2.55  42 2.58  26 2.70  30 2.82  46 2.92  51 2.97  41 3.00  31 3.02
                            62 3.20   4 3.25  27 3.30  40 3.37
  40  0.686  0.995  0.250-  61 2.81  69 2.84  62 2.90  57 3.01  26 3.07  37 3.13  58 3.20  42 3.30
                            70 3.31  39 3.37  52 3.41   3 3.44  46 3.56
  41  0.461  0.230  0.616-  31 2.31  53 2.68  47 2.70  32 2.82  39 3.00   6 3.02  48 3.03  43 3.20
                            27 3.24  44 3.24  42 3.26  28 3.26  63 3.50
  42  0.620  0.005  0.490-  58 2.53  39 2.58  44 2.82  59 2.99  27 3.04  63 3.11  41 3.26  62 3.27
                            71 3.30  40 3.30  54 3.39  70 3.42  26 3.49  47 3.52
  43  0.508  0.161  0.844-  48 2.71  32 2.77  28 2.89  44 2.96  25 2.98  38 2.98  64 2.99  41 3.20
                            55 3.24  29 3.32  37 3.37  60 3.40   8 3.46  45 3.47
  44  0.642  0.989  0.698-  71 2.72  59 2.75  42 2.82  60 2.93  63 2.93  43 2.96  28 3.12  64 3.22
                            41 3.24  56 3.31   7 3.37  72 3.42  38 3.53  48 3.56
  45  0.677  0.339  0.023-  65 2.65  68 2.66  37 2.67  49 2.74  55 2.78  61 2.92  46 2.95  64 3.13
                             9 3.30  43 3.47
  46  0.664  0.346  0.242-  66 2.74  49 2.77  51 2.90  62 2.91  39 2.92  65 2.92  45 2.95  61 3.13
                            52 3.17  37 3.18  30 3.23  40 3.56
  47  0.659  0.349  0.515-  63 2.47  51 2.50  39 2.55  41 2.70  67 2.91  62 3.13  53 3.17  48 3.22
                            66 3.28  11 3.29  54 3.32  31 3.34  42 3.52
  48  0.675  0.332  0.753-  64 2.57  43 2.71  63 2.75  67 2.85  53 2.92  55 2.93  41 3.03  68 3.06
                            47 3.22  12 3.26  56 3.44  44 3.56
  49  0.515  0.512  0.123-  52 2.68  45 2.74  46 2.77  34 2.79  33 2.84  50 2.88  55 3.09  30 3.23
                            57 3.25  29 3.42  65 3.46  13 3.53
  50  0.605  0.709  0.984-  57 2.61  60 2.75  38 2.82  55 2.84  49 2.88  33 2.90  68 3.17  56 3.28
                            72 3.46  52 3.49
  51  0.539  0.500  0.398-  54 2.49  47 2.50  35 2.82  46 2.90  39 2.97  31 3.01  34 3.05  52 3.07
                            66 3.09  58 3.34  15 3.40  30 3.47
  52  0.678  0.659  0.234-  49 2.68  66 2.74  57 2.91  69 2.95  65 2.97  16 2.98  51 3.07  46 3.17
                            34 3.23  58 3.29  54 3.36  40 3.41  50 3.49  70 3.54
  53  0.461  0.486  0.665-  31 2.65  41 2.68  56 2.71  32 2.71  36 2.72  48 2.92  17 3.02  35 3.08
                            55 3.14  47 3.17  59 3.41  67 3.59
  54  0.670  0.674  0.483-  51 2.49  58 2.63  71 2.81  70 2.91  67 2.95  66 3.05  59 3.10  47 3.32
                            52 3.36  42 3.39  35 3.48  56 3.53
  55  0.508  0.474  0.895-  45 2.78  50 2.84  48 2.93  32 3.00  33 3.05  56 3.09  49 3.09  29 3.11
                            68 3.14  53 3.14  36 3.19  43 3.24
  56  0.628  0.668  0.743-  60 2.49  53 2.71  67 2.73  59 2.83  71 2.98  55 3.09  36 3.16  50 3.28
                            44 3.31  68 3.39  48 3.44  72 3.47  20 3.52  54 3.53
  57  0.493  0.832  0.132-  50 2.61  34 2.81  52 2.91  33 2.94  25 2.97  40 3.01  21 3.05  26 3.09
                            49 3.25  37 3.27  38 3.35  58 3.53
  58  0.498  0.827  0.394-  42 2.53  26 2.57  54 2.63  27 2.81  34 2.90  35 2.93  59 3.01  40 3.20
                            52 3.29  22 3.32  51 3.34  57 3.53
  59  0.464  0.817  0.615-  28 2.66  27 2.74  44 2.75  56 2.83  35 2.85  60 2.88  42 2.99  58 3.01
                            36 3.01  54 3.10  53 3.41
  60  0.477  0.827  0.828-  28 2.42  36 2.42  56 2.49  50 2.75  25 2.85  59 2.88  44 2.93  38 3.09
                            33 3.38  24 3.38  43 3.40
  61  0.846  0.150  0.126-   1 2.61  40 2.81   9 2.87  45 2.92   3 3.02  10 3.10  46 3.13  69 3.19
                            62 3.29  38 3.33  37 3.35  65 3.39
  62  0.833  0.185  0.368-   5 2.75   3 2.77  11 2.79  40 2.90  46 2.91  47 3.13  10 3.16  39 3.20
                            66 3.21  63 3.22  42 3.27  61 3.29
  63  0.805  0.196  0.606-  47 2.47   7 2.70  11 2.73  48 2.75   5 2.93  44 2.93  42 3.11  12 3.18
                            62 3.22  67 3.38  64 3.42  41 3.50
  64  0.803  0.163  0.858-  48 2.57  38 2.63  12 2.85   7 2.89  43 2.99   9 3.05  45 3.13  72 3.14
                            44 3.22  63 3.42   1 3.43  68 3.49
  65  0.856  0.485  0.118-  45 2.65  16 2.81  68 2.86   9 2.86  10 2.88  46 2.92  52 2.97  14 3.08
                            66 3.10  13 3.15  61 3.39  49 3.46
  66  0.838  0.500  0.347-  16 2.61  46 2.74  52 2.74  11 2.99  18 3.04  10 3.04  54 3.05  51 3.09
                            65 3.10  62 3.21  47 3.28  70 3.46
  67  0.811  0.527  0.640-  20 2.73  56 2.73  48 2.85  47 2.91  54 2.95  71 2.96  11 3.20  12 3.25
                            18 3.27  63 3.38  53 3.59  17 3.59
  68  0.817  0.500  0.908-  45 2.66  65 2.86   9 2.90  20 3.00  48 3.06  55 3.14  50 3.17  12 3.19
                            14 3.23  19 3.38  56 3.39  64 3.49
  69  0.880  0.838  0.152-  16 2.28   1 2.58  14 2.70  40 2.84   3 2.93  52 2.95  21 3.18  61 3.19
                            70 3.36  38 3.59
  70  0.885  0.831  0.402-   5 2.67  16 2.80   3 2.90  18 2.91  54 2.91  22 2.97  71 3.03  40 3.31
                            69 3.36  42 3.42  66 3.46  52 3.54  23 3.59
  71  0.822  0.818  0.621-  44 2.72  23 2.77  54 2.81  20 2.93  67 2.96   7 2.97  56 2.98  70 3.03
                            72 3.29  42 3.30   5 3.34  18 3.52
  72  0.866  0.859  0.861-  38 2.57  20 2.61   1 2.85  24 2.85   7 2.94  14 3.04  64 3.14  71 3.29
                            44 3.42  50 3.46  56 3.47
 
  LATTYP: Found a simple tetragonal cell.
 ALAT       =    10.1138602096
 C/A-ratio  =     1.3333333333
  
  Lattice vectors:
  
 A1 = (  10.1138602096,   0.0000000000,   0.0000000000)
 A2 = (   0.0000000000,  10.1138602096,   0.0000000000)
 A3 = (   0.0000000000,   0.0000000000,  13.4851469462)


Analysis of symmetry for initial positions (statically):
=====================================================================
 Subroutine PRICEL returns:
 Original cell was already a primitive cell.
 

 Routine SETGRP: Setting up the symmetry group for a 
 simple tetragonal supercell.


 Subroutine GETGRP returns: Found  1 space group operations
 (whereof  1 operations were pure point group operations)
 out of a pool of 16 trial point group operations.


The static configuration has the point symmetry C_1 .


Analysis of symmetry for dynamics (positions and initial velocities):
=====================================================================
 Subroutine PRICEL returns:
 Original cell was already a primitive cell.
 

 Routine SETGRP: Setting up the symmetry group for a 
 simple tetragonal supercell.


 Subroutine GETGRP returns: Found  1 space group operations
 (whereof  1 operations were pure point group operations)
 out of a pool of 16 trial point group operations.


The dynamic configuration has the point symmetry C_1 .


 Subroutine INISYM returns: Found  1 space group operations
 (whereof  1 operations are pure point group operations),
 and found     1 'primitive' translations


----------------------------------------------------------------------------------------

                                     Primitive cell                                     

  volume of cell :    1379.3980

  direct lattice vectors                    reciprocal lattice vectors
    10.113860210  0.000000000  0.000000000     0.098874216  0.000000000  0.000000000
     0.000000000 10.113860210  0.000000000     0.000000000  0.098874216  0.000000000
     0.000000000  0.000000000 13.485146946     0.000000000  0.000000000  0.074155662

  length of vectors
    10.113860210 10.113860210 13.485146946     0.098874216  0.098874216  0.074155662

  position of ions in fractional coordinates (direct lattice)
     0.993129220  0.987904707  0.022502422
     0.228219499  0.150840537  0.131621367
     0.022634592  0.024583799  0.280208550
     0.199060503  0.192374629  0.391626691
     0.995108682  0.039557706  0.490809889
     0.169378464  0.164382350  0.616523758
     0.971079281  0.041125752  0.710744459
     0.169193569  0.137465822  0.877570969
     0.999108066  0.308298715  0.990903067
     0.041440567  0.336755703  0.235015865
     0.982671295  0.339497485  0.497657423
     0.997186050  0.325134028  0.764973012
     0.166268870  0.512436399  0.119586644
     0.019645823  0.702337185  0.015275145
     0.204213828  0.494217836  0.376031013
     0.972073956  0.672653167  0.244284581
     0.164002673  0.484463894  0.640235773
     0.043110652  0.618964468  0.485464007
     0.148228280  0.520990996  0.878045565
     0.974154269  0.662600626  0.764379766
     0.193367326  0.857166297  0.145194819
     0.173499541  0.802386026  0.365822745
     0.095427076  0.813186057  0.615146687
     0.146983454  0.836088292  0.867938149
     0.350867031  0.984182092  0.975931039
     0.390054838  0.017208821  0.296328508
     0.320202182  0.987217531  0.499997034
     0.338398992  0.979966096  0.737875791
     0.303256130  0.298460730  0.006438679
     0.349113991  0.296034357  0.247612687
     0.329291688  0.367182265  0.520990502
     0.307546282  0.323227733  0.776029621
     0.325421752  0.656807585  0.011160292
     0.360067277  0.653641633  0.256885111
     0.328519481  0.632310510  0.491337877
     0.317962681  0.663918619  0.772188358
     0.517990164  0.150680361  0.094345540
     0.680783594  0.975122248  0.957599759
     0.520453120  0.206286231  0.398093065
     0.686492591  0.994755524  0.250139912
     0.460981268  0.229946831  0.615604969
     0.619570567  0.005071635  0.489789507
     0.508128449  0.160610298  0.844393726
     0.642399635  0.989414516  0.697655985
     0.676994734  0.339458924  0.023485726
     0.664375418  0.346122057  0.242330579
     0.658543817  0.348963703  0.514659833
     0.674925297  0.331910866  0.752915301
     0.514901333  0.511891602  0.122701924
     0.605474070  0.708663157  0.984014006
     0.539083000  0.499525404  0.397530965
     0.677776829  0.658831541  0.234319543
     0.460587749  0.486352392  0.665306319
     0.670318747  0.674124416  0.483332773
     0.508480441  0.473629258  0.895257094
     0.627644635  0.668263152  0.743074845
     0.493193499  0.832085863  0.131680691
     0.498238061  0.827334957  0.393562895
     0.463900035  0.816937345  0.615025072
     0.477082934  0.827036357  0.827953415
     0.846420647  0.149999117  0.125632556
     0.833115144  0.184586307  0.367854610
     0.805162414  0.195739319  0.605633258
     0.802968396  0.162762790  0.857749161
     0.855699992  0.484610228  0.117594823
     0.837571405  0.500278825  0.347015386
     0.811320301  0.526571457  0.639634370
     0.816868133  0.500473607  0.908197257
     0.879779819  0.838428644  0.152384211
     0.884963794  0.831489652  0.401631031
     0.821961144  0.817821280  0.620733575
     0.865961159  0.858653365  0.860834036

  ion indices of the primitive-cell ions
   primitive index   ion index
                 1           1
                 2           2
                 3           3
                 4           4
                 5           5
                 6           6
                 7           7
                 8           8
                 9           9
                10          10
                11          11
                12          12
                13          13
                14          14
                15          15
                16          16
                17          17
                18          18
                19          19
                20          20
                21          21
                22          22
                23          23
                24          24
                25          25
                26          26
                27          27
                28          28
                29          29
                30          30
                31          31
                32          32
                33          33
                34          34
                35          35
                36          36
                37          37
                38          38
                39          39
                40          40
                41          41
                42          42
                43          43
                44          44
                45          45
                46          46
                47          47
                48          48
                49          49
                50          50
                51          51
                52          52
                53          53
                54          54
                55          55
                56          56
                57          57
                58          58
                59          59
                60          60
                61          61
                62          62
                63          63
                64          64
                65          65
                66          66
                67          67
                68          68
                69          69
                70          70
                71          71
                72          72

----------------------------------------------------------------------------------------

 
 -----------------------------------------------------------------------------
|                                                                             |
|           W    W    AA    RRRRR   N    N  II  N    N   GGGG   !!!           |
|           W    W   A  A   R    R  NN   N  II  NN   N  G    G  !!!           |
|           W    W  A    A  R    R  N N  N  II  N N  N  G       !!!           |
|           W WW W  AAAAAA  RRRRR   N  N N  II  N  N N  G  GGG   !            |
|           WW  WW  A    A  R   R   N   NN  II  N   NN  G    G                |
|           W    W  A    A  R    R  N    N  II  N    N   GGGG   !!!           |
|                                                                             |
|     The requested file  could not be found or opened for reading            |
|     k-point information. Automatic k-point generation is used as a          |
|     fallback, which may lead to unwanted results.                           |
|                                                                             |
 -----------------------------------------------------------------------------

 

Automatic generation of k-mesh.
 Grid dimensions derived from KSPACING:
 generate k-points for:    4    4    3

 Generating k-lattice:

  Cartesian coordinates                     Fractional coordinates (reciprocal lattice)
     0.024718554  0.000000000  0.000000000     0.250000000  0.000000000  0.000000000
     0.000000000  0.024718554  0.000000000     0.000000000  0.250000000  0.000000000
     0.000000000  0.000000000  0.024718554     0.000000000  0.000000000  0.333333333

  Length of vectors
     0.024718554  0.024718554  0.024718554

  Shift w.r.t. Gamma in fractional coordinates (k-lattice)
     0.000000000  0.000000000  0.000000000

 
 Subroutine IBZKPT returns following result:
 ===========================================
 
 Found     26 irreducible k-points:
 
 Following reciprocal coordinates:
            Coordinates               Weight
  0.000000  0.000000  0.000000      1.000000
  0.250000  0.000000  0.000000      2.000000
  0.000000  0.250000  0.000000      2.000000
  0.500000  0.000000  0.000000      1.000000
  0.000000  0.500000  0.000000      1.000000
  0.250000  0.250000  0.000000      2.000000
 -0.250000  0.250000  0.000000      2.000000
  0.500000  0.250000  0.000000      2.000000
 -0.250000  0.500000  0.000000      2.000000
  0.500000  0.500000  0.000000      1.000000
  0.000000  0.000000  0.333333      2.000000
  0.250000  0.000000  0.333333      2.000000
  0.000000  0.250000  0.333333      2.000000
 -0.250000  0.000000  0.333333      2.000000
  0.000000 -0.250000  0.333333      2.000000
  0.500000  0.000000  0.333333      2.000000
  0.000000  0.500000  0.333333      2.000000
  0.250000  0.250000  0.333333      2.000000
 -0.250000  0.250000  0.333333      2.000000
 -0.250000 -0.250000  0.333333      2.000000
  0.250000 -0.250000  0.333333      2.000000
  0.500000  0.250000  0.333333      2.000000
 -0.250000  0.500000  0.333333      2.000000
  0.500000 -0.250000  0.333333      2.000000
  0.250000  0.500000  0.333333      2.000000
  0.500000  0.500000  0.333333      2.000000
 
 Following cartesian coordinates:
            Coordinates               Weight
  0.000000  0.000000  0.000000      1.000000
  0.024719  0.000000  0.000000      2.000000
  0.000000  0.024719  0.000000      2.000000
  0.049437  0.000000  0.000000      1.000000
  0.000000  0.049437  0.000000      1.000000
  0.024719  0.024719  0.000000      2.000000
 -0.024719  0.024719  0.000000      2.000000
  0.049437  0.024719  0.000000      2.000000
 -0.024719  0.049437  0.000000      2.000000
  0.049437  0.049437  0.000000      1.000000
  0.000000  0.000000  0.024719      2.000000
  0.024719  0.000000  0.024719      2.000000
  0.000000  0.024719  0.024719      2.000000
 -0.024719  0.000000  0.024719      2.000000
  0.000000 -0.024719  0.024719      2.000000
  0.049437  0.000000  0.024719      2.000000
  0.000000  0.049437  0.024719      2.000000
  0.024719  0.024719  0.024719      2.000000
 -0.024719  0.024719  0.024719      2.000000
 -0.024719 -0.024719  0.024719      2.000000
  0.024719 -0.024719  0.024719      2.000000
  0.049437  0.024719  0.024719      2.000000
 -0.024719  0.049437  0.024719      2.000000
  0.049437 -0.024719  0.024719      2.000000
  0.024719  0.049437  0.024719      2.000000
  0.049437  0.049437  0.024719      2.000000
 


--------------------------------------------------------------------------------------------------------




 Dimension of arrays:
   k-points           NKPTS =     26   k-points in BZ     NKDIM =     26   number of bands    NBANDS=    476
   number of dos      NEDOS =    301   number of ions     NIONS =     72
   non local maximal  LDIM  =      6   non local SUM 2l+1 LMDIM =     18
   total plane-waves  NPLWV = 640000
   max r-space proj   IRMAX =   7713   max aug-charges    IRDMAX=  26262
   dimension x,y,z NGX =    80 NGY =   80 NGZ =  100
   dimension x,y,z NGXF=   160 NGYF=  160 NGZF=  200
   support grid    NGXF=   160 NGYF=  160 NGZF=  200
   ions per type =              72
   NGX,Y,Z   is equivalent  to a cutoff of  13.15, 13.15, 12.33 a.u.
   NGXF,Y,Z  is equivalent  to a cutoff of  26.30, 26.30, 24.66 a.u.

 SYSTEM =  unknown system                          
 POSCAR =  POSCAR file written by OVITO Basic 3.7.1

 Startparameter for this run:
   NWRITE =      2    write-flag & timer
   PREC   = accura    normal or accurate (medium, high low for compatibility)
   ISTART =      0    job   : 0-new  1-cont  2-samecut
   ICHARG =      2    charge: 1-file 2-atom 10-const
   ISPIN  =      1    spin polarized calculation?
   LNONCOLLINEAR =      F non collinear calculations
   LSORBIT =      F    spin-orbit coupling
   INIWAV =      1    electr: 0-lowe 1-rand  2-diag
   LASPH  =      T    aspherical Exc in radial PAW
 Electronic Relaxation 1
   ENCUT  =  520.0 eV  38.22 Ry    6.18 a.u.  18.81 18.81 25.07*2*pi/ulx,y,z
   ENINI  =  520.0     initial cutoff
   ENAUG  =  377.4 eV  augmentation charge cutoff
   NELM   =    400;   NELMIN=  2; NELMDL= -5     # of ELM steps 
   EDIFF  = 0.1E-04   stopping-criterion for ELM
   LREAL  =      T    real-space projection
   NLSPLINE    = F    spline interpolate recip. space projectors
   LCOMPAT=      F    compatible to vasp.4.4
   GGA_COMPAT  = T    GGA compatible to vasp.4.4-vasp.4.6
   LMAXPAW     = -100 max onsite density
   LMAXMIX     =    2 max onsite mixed and CHGCAR
   VOSKOWN=      0    Vosko Wilk Nusair interpolation
   ROPT   =   -0.00025
 Ionic relaxation
   EDIFFG = 0.1E-03   stopping-criterion for IOM
   NSW    =      0    number of steps for IOM
   NBLOCK =      1;   KBLOCK =      1    inner block; outer block 
   IBRION =     -1    ionic relax: 0-MD 1-quasi-New 2-CG
   NFREE  =      0    steps in history (QN), initial steepest desc. (CG)
   ISIF   =      2    stress and relaxation
   IWAVPR =     10    prediction:  0-non 1-charg 2-wave 3-comb
   ISYM   =      2    0-nonsym 1-usesym 2-fastsym
   LCORR  =      T    Harris-Foulkes like correction to forces

   POTIM  = 0.5000    time-step for ionic-motion
   TEIN   =    0.0    initial temperature
   TEBEG  =    0.0;   TEEND  =   0.0 temperature during run
   SMASS  =  -3.00    Nose mass-parameter (am)
   estimated Nose-frequenzy (Omega)   =  0.10E-29 period in steps = 0.13E+47 mass=  -0.234E-26a.u.
   SCALEE = 1.0000    scale energy and forces
   NPACO  =    256;   APACO  = 10.0  distance and # of slots for P.C.
   PSTRESS=    0.0 pullay stress

  Mass of Ions in am
   POMASS = 180.95
  Ionic Valenz
   ZVAL   =  11.00
  Atomic Wigner-Seitz radii
   RWIGS  =  -1.00
  virtual crystal weights 
   VCA    =   1.00
   NELECT =     792.0000    total number of electrons
   NUPDOWN=      -1.0000    fix difference up-down

 DOS related values:
   EMIN   =  10.00;   EMAX   =-10.00  energy-range for DOS
   EFERMI =   0.00
   ISMEAR =     1;   SIGMA  =   0.10  broadening in eV -4-tet -1-fermi 0-gaus

 Electronic relaxation 2 (details)
   IALGO  =     38    algorithm
   LDIAG  =      T    sub-space diagonalisation (order eigenvalues)
   LSUBROT=      F    optimize rotation matrix (better conditioning)
   TURBO    =      0    0=normal 1=particle mesh
   IRESTART =      0    0=no restart 2=restart with 2 vectors
   NREBOOT  =      0    no. of reboots
   NMIN     =      0    reboot dimension
   EREF     =   0.00    reference energy to select bands
   IMIX   =      4    mixing-type and parameters
     AMIX     =   0.40;   BMIX     =  1.00
     AMIX_MAG =   1.60;   BMIX_MAG =  1.00
     AMIN     =   0.10
     WC   =   100.;   INIMIX=   1;  MIXPRE=   1;  MAXMIX= -45

 Intra band minimization:
   WEIMIN = 0.0000     energy-eigenvalue tresh-hold
   EBREAK =  0.53E-08  absolut break condition
   DEPER  =   0.30     relativ break condition  

   TIME   =   0.40     timestep for ELM

  volume/ion in A,a.u.               =      19.16       129.29
  Fermi-wavevector in a.u.,A,eV,Ry     =   1.360672  2.571297 25.190202  1.851428
  Thomas-Fermi vector in A             =   2.487314
 
 Write flags
   LWAVE        =      F    write WAVECAR
   LDOWNSAMPLE  =      F    k-point downsampling of WAVECAR
   LCHARG       =      F    write CHGCAR
   LVTOT        =      F    write LOCPOT, total local potential
   LVHAR        =      F    write LOCPOT, Hartree potential only
   LELF         =      F    write electronic localiz. function (ELF)
   LORBIT       =      0    0 simple, 1 ext, 2 COOP (PROOUT), +10 PAW based schemes


 Dipole corrections
   LMONO  =      F    monopole corrections only (constant potential shift)
   LDIPOL =      F    correct potential (dipole corrections)
   IDIPOL =      0    1-x, 2-y, 3-z, 4-all directions 
   EPSILON=  1.0000000 bulk dielectric constant

 Exchange correlation treatment:
   GGA     =    --    GGA type
   LEXCH   =     8    internal setting for exchange type
   LIBXC   =     F    Libxc                    
   VOSKOWN =     0    Vosko Wilk Nusair interpolation
   LHFCALC =     F    Hartree Fock is set to
   LHFONE  =     F    Hartree Fock one center treatment
   AEXX    =    0.0000 exact exchange contribution

 Linear response parameters
   LEPSILON=     F    determine dielectric tensor
   LRPA    =     F    only Hartree local field effects (RPA)
   LNABLA  =     F    use nabla operator in PAW spheres
   LVEL    =     F    velocity operator in full k-point grid
   CSHIFT  =0.1000    complex shift for real part using Kramers Kronig
   OMEGAMAX=  -1.0    maximum frequency
   DEG_THRESHOLD= 0.2000000E-02 threshold for treating states as degnerate
   RTIME   =   -0.100 relaxation time in fs
  (WPLASMAI=    0.000 imaginary part of plasma frequency in eV, 0.658/RTIME)
   DFIELD  = 0.0000000 0.0000000 0.0000000 field for delta impulse in time
 
  Optional k-point grid parameters
   LKPOINTS_OPT  =     F    use optional k-point grid
   KPOINTS_OPT_MODE=     1    mode for optional k-point grid
 
 Orbital magnetization related:
   ORBITALMAG=     F  switch on orbital magnetization
   LCHIMAG   =     F  perturbation theory with respect to B field
   DQ        =  0.001000  dq finite difference perturbation B field
   LLRAUG    =     F  two centre corrections for induced B field



--------------------------------------------------------------------------------------------------------


 Static calculation
 charge density and potential will be updated during run
 non-spin polarized calculation
 Variant of blocked Davidson
 Davidson routine will perform the subspace rotation
 perform sub-space diagonalisation
    after iterative eigenvector-optimisation
 modified Broyden-mixing scheme, WC =      100.0
 initial mixing is a Kerker type mixing with AMIX =  0.4000 and BMIX =      1.0000
 Hartree-type preconditioning will be used
 using additional bands           80
 real space projection scheme for non local part
 use partial core corrections
 calculate Harris-corrections to forces 
   (improved forces if not selfconsistent)
 use gradient corrections 
 use of overlap-Matrix (Vanderbilt PP)
 Methfessel and Paxton  Order N= 1 SIGMA  =   0.10


--------------------------------------------------------------------------------------------------------


  energy-cutoff  :      520.00
  volume of cell :     1379.40
      direct lattice vectors                 reciprocal lattice vectors
    10.113860210  0.000000000  0.000000000     0.098874216  0.000000000  0.000000000
     0.000000000 10.113860210  0.000000000     0.000000000  0.098874216  0.000000000
     0.000000000  0.000000000 13.485146946     0.000000000  0.000000000  0.074155662

  length of vectors
    10.113860210 10.113860210 13.485146946     0.098874216  0.098874216  0.074155662


 
 k-points in units of 2pi/SCALE and weight: read from INCAR                         
   0.00000000  0.00000000  0.00000000       0.021
   0.02471855  0.00000000  0.00000000       0.042
   0.00000000  0.02471855  0.00000000       0.042
   0.04943711  0.00000000  0.00000000       0.021
   0.00000000  0.04943711  0.00000000       0.021
   0.02471855  0.02471855  0.00000000       0.042
  -0.02471855  0.02471855  0.00000000       0.042
   0.04943711  0.02471855  0.00000000       0.042
  -0.02471855  0.04943711  0.00000000       0.042
   0.04943711  0.04943711  0.00000000       0.021
   0.00000000  0.00000000  0.02471855       0.042
   0.02471855  0.00000000  0.02471855       0.042
   0.00000000  0.02471855  0.02471855       0.042
  -0.02471855  0.00000000  0.02471855       0.042
   0.00000000 -0.02471855  0.02471855       0.042
   0.04943711  0.00000000  0.02471855       0.042
   0.00000000  0.04943711  0.02471855       0.042
   0.02471855  0.02471855  0.02471855       0.042
  -0.02471855  0.02471855  0.02471855       0.042
  -0.02471855 -0.02471855  0.02471855       0.042
   0.02471855 -0.02471855  0.02471855       0.042
   0.04943711  0.02471855  0.02471855       0.042
  -0.02471855  0.04943711  0.02471855       0.042
   0.04943711 -0.02471855  0.02471855       0.042
   0.02471855  0.04943711  0.02471855       0.042
   0.04943711  0.04943711  0.02471855       0.042
 
 k-points in reciprocal lattice and weights: read from INCAR                         
   0.00000000  0.00000000  0.00000000       0.021
   0.25000000  0.00000000  0.00000000       0.042
   0.00000000  0.25000000  0.00000000       0.042
   0.50000000  0.00000000  0.00000000       0.021
   0.00000000  0.50000000  0.00000000       0.021
   0.25000000  0.25000000  0.00000000       0.042
  -0.25000000  0.25000000  0.00000000       0.042
   0.50000000  0.25000000  0.00000000       0.042
  -0.25000000  0.50000000  0.00000000       0.042
   0.50000000  0.50000000  0.00000000       0.021
   0.00000000  0.00000000  0.33333333       0.042
   0.25000000  0.00000000  0.33333333       0.042
   0.00000000  0.25000000  0.33333333       0.042
  -0.25000000  0.00000000  0.33333333       0.042
   0.00000000 -0.25000000  0.33333333       0.042
   0.50000000  0.00000000  0.33333333       0.042
   0.00000000  0.50000000  0.33333333       0.042
   0.25000000  0.25000000  0.33333333       0.042
  -0.25000000  0.25000000  0.33333333       0.042
  -0.25000000 -0.25000000  0.33333333       0.042
   0.25000000 -0.25000000  0.33333333       0.042
   0.50000000  0.25000000  0.33333333       0.042
  -0.25000000  0.50000000  0.33333333       0.042
   0.50000000 -0.25000000  0.33333333       0.042
   0.25000000  0.50000000  0.33333333       0.042
   0.50000000  0.50000000  0.33333333       0.042
 
 position of ions in fractional coordinates (direct lattice) 
   0.99312922  0.98790471  0.02250242
   0.22821950  0.15084054  0.13162137
   0.02263459  0.02458380  0.28020855
   0.19906050  0.19237463  0.39162669
   0.99510868  0.03955771  0.49080989
   0.16937846  0.16438235  0.61652376
   0.97107928  0.04112575  0.71074446
   0.16919357  0.13746582  0.87757097
   0.99910807  0.30829871  0.99090307
   0.04144057  0.33675570  0.23501586
   0.98267129  0.33949749  0.49765742
   0.99718605  0.32513403  0.76497301
   0.16626887  0.51243640  0.11958664
   0.01964582  0.70233718  0.01527514
   0.20421383  0.49421784  0.37603101
   0.97207396  0.67265317  0.24428458
   0.16400267  0.48446389  0.64023577
   0.04311065  0.61896447  0.48546401
   0.14822828  0.52099100  0.87804557
   0.97415427  0.66260063  0.76437977
   0.19336733  0.85716630  0.14519482
   0.17349954  0.80238603  0.36582275
   0.09542708  0.81318606  0.61514669
   0.14698345  0.83608829  0.86793815
   0.35086703  0.98418209  0.97593104
   0.39005484  0.01720882  0.29632851
   0.32020218  0.98721753  0.49999703
   0.33839899  0.97996610  0.73787579
   0.30325613  0.29846073  0.00643868
   0.34911399  0.29603436  0.24761269
   0.32929169  0.36718227  0.52099050
   0.30754628  0.32322773  0.77602962
   0.32542175  0.65680759  0.01116029
   0.36006728  0.65364163  0.25688511
   0.32851948  0.63231051  0.49133788
   0.31796268  0.66391862  0.77218836
   0.51799016  0.15068036  0.09434554
   0.68078359  0.97512225  0.95759976
   0.52045312  0.20628623  0.39809306
   0.68649259  0.99475552  0.25013991
   0.46098127  0.22994683  0.61560497
   0.61957057  0.00507163  0.48978951
   0.50812845  0.16061030  0.84439373
   0.64239963  0.98941452  0.69765598
   0.67699473  0.33945892  0.02348573
   0.66437542  0.34612206  0.24233058
   0.65854382  0.34896370  0.51465983
   0.67492530  0.33191087  0.75291530
   0.51490133  0.51189160  0.12270192
   0.60547407  0.70866316  0.98401401
   0.53908300  0.49952540  0.39753096
   0.67777683  0.65883154  0.23431954
   0.46058775  0.48635239  0.66530632
   0.67031875  0.67412442  0.48333277
   0.50848044  0.47362926  0.89525709
   0.62764464  0.66826315  0.74307484
   0.49319350  0.83208586  0.13168069
   0.49823806  0.82733496  0.39356290
   0.46390004  0.81693734  0.61502507
   0.47708293  0.82703636  0.82795342
   0.84642065  0.14999912  0.12563256
   0.83311514  0.18458631  0.36785461
   0.80516241  0.19573932  0.60563326
   0.80296840  0.16276279  0.85774916
   0.85569999  0.48461023  0.11759482
   0.83757140  0.50027883  0.34701539
   0.81132030  0.52657146  0.63963437
   0.81686813  0.50047361  0.90819726
   0.87977982  0.83842864  0.15238421
   0.88496379  0.83148965  0.40163103
   0.82196114  0.81782128  0.62073358
   0.86596116  0.85865337  0.86083404
 
 position of ions in cartesian coordinates  (Angst):
  10.04437011  9.99153010  0.30344847
   2.30818010  1.52558011  1.77493347
   0.22892310  0.24863710  3.77865347
   2.01327010  1.94565010  5.28114347
  10.06439011  0.40008110  6.61864347
   1.71307010  1.66254010  8.31391347
   9.82136010  0.41594010  9.58449347
   1.71120011  1.39031011 11.83417347
  10.10483931  3.11809011 13.36247347
   0.41912410  3.40590010  3.16922347
   9.93860010  3.43363010  6.71098347
  10.08540031  3.28836010 10.31577347
   1.68162010  5.18271010  1.61264347
   0.19869510  7.10334011  0.20598757
   2.06539011  4.99845010  5.07083347
   9.83142010  6.80312010  3.29421347
   1.65870010  4.89980010  8.63367347
   0.43601510  6.26012011  6.54655347
   1.49916011  5.26923011 11.84057347
   9.85246010  6.70145011 10.30777347
   1.95569011  8.66926011  1.95797347
   1.75475011  8.11522011  4.93317347
   0.96513610  8.22445010  8.29534347
   1.48657010  8.45608011 11.70427347
   3.54862010  9.95388010 13.16057347
   3.94496010  0.17404760  3.99603347
   3.23848010  9.98458011  6.74253347
   3.42252011  9.91124011  9.95036347
   3.06709010  3.01859010  0.08682653
   3.53089011  2.99405010  3.33909347
   3.33041010  3.71363010  7.02563347
   3.11048011  3.26908010 10.46487347
   3.29127010  6.64286010  0.15049817
   3.64167010  6.61084010  3.46413347
   3.32260010  6.39510011  6.62576347
   3.21583010  6.71478011 10.41307347
   5.23888010  1.52396010  1.27226347
   6.88535010  9.86225010 12.91337347
   5.26379010  2.08635010  5.36834347
   6.94309010 10.06081831  3.37317347
   4.66230010  2.32565010  8.30152347
   6.26625010  0.05129380  6.60488347
   5.13914010  1.62439011 11.38677347
   6.49714011 10.00680011  9.40799347
   6.84703010  3.43324011  0.31670847
   6.71940010  3.50063011  3.26786347
   6.66042011  3.52937011  6.94026347
   6.82610010  3.35690010 10.15317347
   5.20764010  5.17720011  1.65465347
   6.12368010  7.16732010 13.26957347
   5.45221010  5.05213011  5.36076347
   6.85494010  6.66333010  3.15983347
   4.65832010  4.91890011  8.97175347
   6.77951011  6.81800011  6.51781347
   5.14270010  4.79022010 12.07267347
   6.34791010  6.75872010 10.02047347
   4.98809011  8.41560010  1.77573347
   5.03911011  8.36755010  5.30725347
   4.69182011  8.26239010  8.29370347
   4.82515010  8.36453010 11.16507347
   8.56058010  1.51707010  1.69417347
   8.42601010  1.86688010  4.96057347
   8.14330011  1.97968010  8.16705347
   8.12111010  1.64616010 11.56687347
   8.65443010  4.90128011  1.58578347
   8.47108010  5.05975010  4.67955347
   8.20558010  5.32567010  8.62556347
   8.26169010  5.06172010 12.24717347
   8.89797010  8.47975011  2.05492347
   8.95040011  8.40957011  5.41605347
   8.31320011  8.27133010  8.37068347
   8.75821011  8.68430011 11.60847347
 


--------------------------------------------------------------------------------------------------------


 k-point   1 :   0.0000 0.0000 0.0000  plane waves:   37183
 k-point   2 :   0.2500 0.0000 0.0000  plane waves:   37178
 k-point   3 :   0.0000 0.2500 0.0000  plane waves:   37178
 k-point   4 :   0.5000 0.0000 0.0000  plane waves:   37078
 k-point   5 :   0.0000 0.5000 0.0000  plane waves:   37078
 k-point   6 :   0.2500 0.2500 0.0000  plane waves:   37121
 k-point   7 :  -0.2500 0.2500 0.0000  plane waves:   37121
 k-point   8 :   0.5000 0.2500 0.0000  plane waves:   37100
 k-point   9 :  -0.2500 0.5000 0.0000  plane waves:   37100
 k-point  10 :   0.5000 0.5000 0.0000  plane waves:   37196
 k-point  11 :   0.0000 0.0000 0.3333  plane waves:   37130
 k-point  12 :   0.2500 0.0000 0.3333  plane waves:   37147
 k-point  13 :   0.0000 0.2500 0.3333  plane waves:   37147
 k-point  14 :  -0.2500 0.0000 0.3333  plane waves:   37147
 k-point  15 :   0.0000-0.2500 0.3333  plane waves:   37147
 k-point  16 :   0.5000 0.0000 0.3333  plane waves:   37146
 k-point  17 :   0.0000 0.5000 0.3333  plane waves:   37146
 k-point  18 :   0.2500 0.2500 0.3333  plane waves:   37155
 k-point  19 :  -0.2500 0.2500 0.3333  plane waves:   37155
 k-point  20 :  -0.2500-0.2500 0.3333  plane waves:   37155
 k-point  21 :   0.2500-0.2500 0.3333  plane waves:   37155
 k-point  22 :   0.5000 0.2500 0.3333  plane waves:   37172
 k-point  23 :  -0.2500 0.5000 0.3333  plane waves:   37172
 k-point  24 :   0.5000-0.2500 0.3333  plane waves:   37172
 k-point  25 :   0.2500 0.5000 0.3333  plane waves:   37172
 k-point  26 :   0.5000 0.5000 0.3333  plane waves:   37200

 maximum and minimum number of plane-waves per node :     37200    37078

 maximum number of plane-waves:     37200
 maximum index in each direction: 
   IXMAX=   19   IYMAX=   19   IZMAX=   25
   IXMIN=  -19   IYMIN=  -19   IZMIN=  -25


 serial   3D FFT for wavefunctions
 parallel 3D FFT for charge:
    minimum data exchange during FFTs selected (reduces bandwidth)


 total amount of memory used by VASP MPI-rank0  2164583. kBytes
=======================================================================

   base      :      30000. kBytes
   nonlr-proj:      94272. kBytes
   fftplans  :      45935. kBytes
   grid      :      87552. kBytes
   one-center:       1119. kBytes
   wavefun   :    1905705. kBytes
 
     INWAV:  cpu time      0.0001: real time      0.0000
 Broyden mixing: mesh for mixing (old mesh)
   NGX = 37   NGY = 37   NGZ = 51
  (NGX  =160   NGY  =160   NGZ  =200)
  gives a total of  69819 points

 initial charge density was supplied:
 charge density of overlapping atoms calculated
 number of electron     792.0000000 magnetization 
 keeping initial charge density in first step


--------------------------------------------------------------------------------------------------------


 Maximum index for non-local projection operator         7477
 Maximum index for augmentation-charges         6359 (set IRDMAX)


--------------------------------------------------------------------------------------------------------


 First call to EWALD:  gamma=   0.159
 Maximum number of real-space cells 3x 3x 2
 Maximum number of reciprocal cells 3x 3x 3

    FEWALD:  cpu time      0.0111: real time      0.0056


--------------------------------------- Iteration      1(   1)  ---------------------------------------


    POTLOK:  cpu time      2.2676: real time      0.3276
    SETDIJ:  cpu time      6.8710: real time      2.8701
     EDDAV:  cpu time    340.3458: real time     48.8124
       DOS:  cpu time      0.0823: real time      0.0118
    --------------------------------------------
      LOOP:  cpu time    349.5672: real time     52.0219

 eigenvalue-minimisations  : 24752
 total energy-change (2. order) : 0.9005935E+04  (-0.4313697E+05)
 number of electron     792.0000000 magnetization 
 augmentation part      792.0000000 magnetization 

 Free energy of the ion-electron system (eV)
  ---------------------------------------------------
  alpha Z        PSCENC =      8615.69140340
  Ewald energy   TEWEN  =    -66635.40197120
  -Hartree energ DENC   =    -10478.84032624
  -exchange      EXHF   =         0.00000000
  -V(xc)+E(xc)   XCENC  =      1684.97913503
  PAW double counting   =     59108.28620343   -57919.72814005
  entropy T*S    EENTRO =        -0.00244804
  eigenvalues    EBANDS =      -767.21531178
  atomic energy  EATOM  =     75398.16640936
  Solvation  Ediel_sol  =         0.00000000
  ---------------------------------------------------
  free energy    TOTEN  =      9005.93495391 eV

  energy without entropy =     9005.93740195  energy(sigma->0) =     9005.93576992


--------------------------------------------------------------------------------------------------------




--------------------------------------- Iteration      1(   2)  ---------------------------------------


     EDDAV:  cpu time    342.2789: real time     48.9949
       DOS:  cpu time      0.0823: real time      0.0118
    --------------------------------------------
      LOOP:  cpu time    342.3611: real time     49.0067

 eigenvalue-minimisations  : 24760
 total energy-change (2. order) :-0.9249280E+04  (-0.9008706E+04)
 number of electron     792.0000000 magnetization 
 augmentation part      792.0000000 magnetization 

 Free energy of the ion-electron system (eV)
  ---------------------------------------------------
  alpha Z        PSCENC =      8615.69140340
  Ewald energy   TEWEN  =    -66635.40197120
  -Hartree energ DENC   =    -10478.84032624
  -exchange      EXHF   =         0.00000000
  -V(xc)+E(xc)   XCENC  =      1684.97913503
  PAW double counting   =     59108.28620343   -57919.72814005
  entropy T*S    EENTRO =        -0.00590134
  eigenvalues    EBANDS =    -10016.49202609
  atomic energy  EATOM  =     75398.16640936
  Solvation  Ediel_sol  =         0.00000000
  ---------------------------------------------------
  free energy    TOTEN  =      -243.34521370 eV

  energy without entropy =     -243.33931235  energy(sigma->0) =     -243.34324658


--------------------------------------------------------------------------------------------------------




--------------------------------------- Iteration      1(   3)  ---------------------------------------


     EDDAV:  cpu time    409.3813: real time     58.6643
       DOS:  cpu time      0.0885: real time      0.0126
    --------------------------------------------
      LOOP:  cpu time    409.4699: real time     58.6769

 eigenvalue-minimisations  : 31180
 total energy-change (2. order) :-0.5748099E+03  (-0.5319845E+03)
 number of electron     792.0000000 magnetization 
 augmentation part      792.0000000 magnetization 

 Free energy of the ion-electron system (eV)
  ---------------------------------------------------
  alpha Z        PSCENC =      8615.69140340
  Ewald energy   TEWEN  =    -66635.40197120
  -Hartree energ DENC   =    -10478.84032624
  -exchange      EXHF   =         0.00000000
  -V(xc)+E(xc)   XCENC  =      1684.97913503
  PAW double counting   =     59108.28620343   -57919.72814005
  entropy T*S    EENTRO =         0.00273877
  eigenvalues    EBANDS =    -10591.31052155
  atomic energy  EATOM  =     75398.16640936
  Solvation  Ediel_sol  =         0.00000000
  ---------------------------------------------------
  free energy    TOTEN  =      -818.15506905 eV

  energy without entropy =     -818.15780782  energy(sigma->0) =     -818.15598197


--------------------------------------------------------------------------------------------------------




--------------------------------------- Iteration      1(   4)  ---------------------------------------


     EDDAV:  cpu time    390.9121: real time     55.9874
       DOS:  cpu time      0.0877: real time      0.0125
    --------------------------------------------
      LOOP:  cpu time    390.9999: real time     55.9999

 eigenvalue-minimisations  : 29600
 total energy-change (2. order) :-0.3458542E+02  (-0.3236524E+02)
 number of electron     792.0000000 magnetization 
 augmentation part      792.0000000 magnetization 

 Free energy of the ion-electron system (eV)
  ---------------------------------------------------
  alpha Z        PSCENC =      8615.69140340
  Ewald energy   TEWEN  =    -66635.40197120
  -Hartree energ DENC   =    -10478.84032624
  -exchange      EXHF   =         0.00000000
  -V(xc)+E(xc)   XCENC  =      1684.97913503
  PAW double counting   =     59108.28620343   -57919.72814005
  entropy T*S    EENTRO =         0.00424049
  eigenvalues    EBANDS =    -10625.89743923
  atomic energy  EATOM  =     75398.16640936
  Solvation  Ediel_sol  =         0.00000000
  ---------------------------------------------------
  free energy    TOTEN  =      -852.74048500 eV

  energy without entropy =     -852.74472549  energy(sigma->0) =     -852.74189850


--------------------------------------------------------------------------------------------------------




--------------------------------------- Iteration      1(   5)  ---------------------------------------


     EDDAV:  cpu time    411.2380: real time     58.8834
       DOS:  cpu time      0.0853: real time      0.0122
    CHARGE:  cpu time      2.1979: real time      0.7943
    MIXING:  cpu time      0.0874: real time      0.0145
    --------------------------------------------
      LOOP:  cpu time    413.6091: real time     59.7045

 eigenvalue-minimisations  : 31472
 total energy-change (2. order) :-0.1660926E+01  (-0.1634950E+01)
 number of electron     792.0000006 magnetization 
 augmentation part      236.0278082 magnetization 

 Broyden mixing:
  rms(total) = 0.11131E+02    rms(broyden)= 0.11131E+02
  rms(prec ) = 0.11457E+02
  weight for this iteration     100.00

 Free energy of the ion-electron system (eV)
  ---------------------------------------------------
  alpha Z        PSCENC =      8615.69140340
  Ewald energy   TEWEN  =    -66635.40197120
  -Hartree energ DENC   =    -10478.84032624
  -exchange      EXHF   =         0.00000000
  -V(xc)+E(xc)   XCENC  =      1684.97913503
  PAW double counting   =     59108.28620343   -57919.72814005
  entropy T*S    EENTRO =         0.00543222
  eigenvalues    EBANDS =    -10627.55955671
  atomic energy  EATOM  =     75398.16640936
  Solvation  Ediel_sol  =         0.00000000
  ---------------------------------------------------
  free energy    TOTEN  =      -854.40141075 eV

  energy without entropy =     -854.40684297  energy(sigma->0) =     -854.40322149


--------------------------------------------------------------------------------------------------------




--------------------------------------- Iteration      1(   6)  ---------------------------------------


    POTLOK:  cpu time      2.0617: real time      0.2953
    SETDIJ:  cpu time      6.8581: real time      2.8636
     EDDAV:  cpu time    409.1656: real time     58.8002
       DOS:  cpu time      0.0866: real time      0.0124
    CHARGE:  cpu time      2.1979: real time      0.8003
    MIXING:  cpu time      0.0763: real time      0.0109
    --------------------------------------------
      LOOP:  cpu time    420.4462: real time     62.7827

 eigenvalue-minimisations  : 31592
 total energy-change (2. order) : 0.1899924E+02  (-0.9914580E+01)
 number of electron     792.0000006 magnetization 
 augmentation part      238.7081366 magnetization 

 Broyden mixing:
  rms(total) = 0.58510E+01    rms(broyden)= 0.58510E+01
  rms(prec ) = 0.72579E+01
  weight for this iteration     100.00

 eigenvalues of (default mixing * dielectric matrix)
  average eigenvalue GAMMA=   1.8599
  1.8599

 Free energy of the ion-electron system (eV)
  ---------------------------------------------------
  alpha Z        PSCENC =      8615.69140340
  Ewald energy   TEWEN  =    -66635.40197120
  -Hartree energ DENC   =     -9967.85842349
  -exchange      EXHF   =         0.00000000
  -V(xc)+E(xc)   XCENC  =      1658.15793180
  PAW double counting   =     80883.38920656   -79793.09282025
  entropy T*S    EENTRO =        -0.00001937
  eigenvalues    EBANDS =    -10994.45388479
  atomic energy  EATOM  =     75398.16640936
  Solvation  Ediel_sol  =         0.00000000
  ---------------------------------------------------
  free energy    TOTEN  =      -835.40216798 eV

  energy without entropy =     -835.40214861  energy(sigma->0) =     -835.40216152


--------------------------------------------------------------------------------------------------------




--------------------------------------- Iteration      1(   7)  ---------------------------------------


    POTLOK:  cpu time      2.0861: real time      0.2999
    SETDIJ:  cpu time      6.8606: real time      2.8633
     EDDAV:  cpu time    447.0571: real time     64.1922
       DOS:  cpu time      0.0868: real time      0.0124
    CHARGE:  cpu time      2.2030: real time      0.7958
    MIXING:  cpu time      0.0734: real time      0.0105
    --------------------------------------------
      LOOP:  cpu time    458.3668: real time     68.1741

 eigenvalue-minimisations  : 35228
 total energy-change (2. order) :-0.7597032E+02  (-0.2730027E+02)
 number of electron     792.0000006 magnetization 
 augmentation part      241.8589436 magnetization 

 Broyden mixing:
  rms(total) = 0.47462E+01    rms(broyden)= 0.47462E+01
  rms(prec ) = 0.13839E+02
  weight for this iteration     100.00

 eigenvalues of (default mixing * dielectric matrix)
  average eigenvalue GAMMA=   1.1258
  1.9522  0.2994

 Free energy of the ion-electron system (eV)
  ---------------------------------------------------
  alpha Z        PSCENC =      8615.69140340
  Ewald energy   TEWEN  =    -66635.40197120
  -Hartree energ DENC   =     -9611.96822856
  -exchange      EXHF   =         0.00000000
  -V(xc)+E(xc)   XCENC  =      1644.41027535
  PAW double counting   =     95770.36836933   -94732.91222164
  entropy T*S    EENTRO =        -0.00798888
  eigenvalues    EBANDS =    -11359.71853758
  atomic energy  EATOM  =     75398.16640936
  Solvation  Ediel_sol  =         0.00000000
  ---------------------------------------------------
  free energy    TOTEN  =      -911.37249043 eV

  energy without entropy =     -911.36450155  energy(sigma->0) =     -911.36982747


--------------------------------------------------------------------------------------------------------




--------------------------------------- Iteration      1(   8)  ---------------------------------------


    POTLOK:  cpu time      2.0165: real time      0.2882
    SETDIJ:  cpu time      6.8172: real time      2.8413
     EDDAV:  cpu time    454.3966: real time     65.2449
       DOS:  cpu time      0.0874: real time      0.0125
    CHARGE:  cpu time      2.0490: real time      0.8013
    MIXING:  cpu time      0.0734: real time      0.0105
    --------------------------------------------
      LOOP:  cpu time    465.4403: real time     69.1986

 eigenvalue-minimisations  : 35928
 total energy-change (2. order) : 0.8003416E+02  (-0.2482860E+02)
 number of electron     792.0000006 magnetization 
 augmentation part      242.6978093 magnetization 

 Broyden mixing:
  rms(total) = 0.20984E+01    rms(broyden)= 0.20984E+01
  rms(prec ) = 0.49639E+01
  weight for this iteration     100.00

 eigenvalues of (default mixing * dielectric matrix)
  average eigenvalue GAMMA=   0.8958
  2.0042  0.4377  0.2454

 Free energy of the ion-electron system (eV)
  ---------------------------------------------------
  alpha Z        PSCENC =      8615.69140340
  Ewald energy   TEWEN  =    -66635.40197120
  -Hartree energ DENC   =     -9451.15111897
  -exchange      EXHF   =         0.00000000
  -V(xc)+E(xc)   XCENC  =      1635.69195225
  PAW double counting   =    108552.37206025  -107552.76640246
  entropy T*S    EENTRO =         0.00188093
  eigenvalues    EBANDS =    -11393.94253972
  atomic energy  EATOM  =     75398.16640936
  Solvation  Ediel_sol  =         0.00000000
  ---------------------------------------------------
  free energy    TOTEN  =      -831.33832615 eV

  energy without entropy =     -831.34020708  energy(sigma->0) =     -831.33895312


--------------------------------------------------------------------------------------------------------




--------------------------------------- Iteration      1(   9)  ---------------------------------------


    POTLOK:  cpu time      2.0064: real time      0.2867
    SETDIJ:  cpu time      6.8317: real time      2.8486
     EDDAV:  cpu time    409.3819: real time     58.7770
       DOS:  cpu time      0.0878: real time      0.0125
    CHARGE:  cpu time      2.2064: real time      0.8032
    MIXING:  cpu time      0.0940: real time      0.0134
    --------------------------------------------
      LOOP:  cpu time    420.6080: real time     62.7414

 eigenvalue-minimisations  : 31568
 total energy-change (2. order) : 0.1432514E+02  (-0.8530255E+01)
 number of electron     792.0000006 magnetization 
 augmentation part      242.8591022 magnetization 

 Broyden mixing:
  rms(total) = 0.79477E+00    rms(broyden)= 0.79477E+00
  rms(prec ) = 0.12203E+01
  weight for this iteration     100.00

 eigenvalues of (default mixing * dielectric matrix)
  average eigenvalue GAMMA=   0.7811
  2.0025  0.4487  0.4487  0.2245

 Free energy of the ion-electron system (eV)
  ---------------------------------------------------
  alpha Z        PSCENC =      8615.69140340
  Ewald energy   TEWEN  =    -66635.40197120
  -Hartree energ DENC   =     -9429.65507571
  -exchange      EXHF   =         0.00000000
  -V(xc)+E(xc)   XCENC  =      1634.17892986
  PAW double counting   =    112825.50518632  -111834.49405796
  entropy T*S    EENTRO =         0.00616416
  eigenvalues    EBANDS =    -11391.01017455
  atomic energy  EATOM  =     75398.16640936
  Solvation  Ediel_sol  =         0.00000000
  ---------------------------------------------------
  free energy    TOTEN  =      -817.01318630 eV

  energy without entropy =     -817.01935047  energy(sigma->0) =     -817.01524102


--------------------------------------------------------------------------------------------------------




--------------------------------------- Iteration      1(  10)  ---------------------------------------


    POTLOK:  cpu time      2.0202: real time      0.2886
    SETDIJ:  cpu time      6.8299: real time      2.8480
     EDDAV:  cpu time    394.3746: real time     56.6262
       DOS:  cpu time      0.0881: real time      0.0126
    CHARGE:  cpu time      2.0404: real time      0.8098
    MIXING:  cpu time      0.0768: real time      0.0110
    --------------------------------------------
      LOOP:  cpu time    405.4301: real time     60.5963

 eigenvalue-minimisations  : 30312
 total energy-change (2. order) : 0.2896157E+00  (-0.1436251E+01)
 number of electron     792.0000006 magnetization 
 augmentation part      242.8418875 magnetization 

 Broyden mixing:
  rms(total) = 0.54810E+00    rms(broyden)= 0.54810E+00
  rms(prec ) = 0.62948E+00
  weight for this iteration     100.00

 eigenvalues of (default mixing * dielectric matrix)
  average eigenvalue GAMMA=   0.7139
  1.9866  0.5120  0.5120  0.2327  0.3263

 Free energy of the ion-electron system (eV)
  ---------------------------------------------------
  alpha Z        PSCENC =      8615.69140340
  Ewald energy   TEWEN  =    -66635.40197120
  -Hartree energ DENC   =     -9436.99914324
  -exchange      EXHF   =         0.00000000
  -V(xc)+E(xc)   XCENC  =      1634.50073443
  PAW double counting   =    113781.76794809  -112791.56164173
  entropy T*S    EENTRO =         0.00529113
  eigenvalues    EBANDS =    -11382.89260084
  atomic energy  EATOM  =     75398.16640936
  Solvation  Ediel_sol  =         0.00000000
  ---------------------------------------------------
  free energy    TOTEN  =      -816.72357061 eV

  energy without entropy =     -816.72886174  energy(sigma->0) =     -816.72533432


--------------------------------------------------------------------------------------------------------




--------------------------------------- Iteration      1(  11)  ---------------------------------------


    POTLOK:  cpu time      2.2194: real time      0.3220
    SETDIJ:  cpu time      6.9524: real time      2.9095
     EDDAV:  cpu time    379.8274: real time     54.5711
       DOS:  cpu time      0.0894: real time      0.0128
    CHARGE:  cpu time      2.2051: real time      0.8023
    MIXING:  cpu time      0.0801: real time      0.0114
    --------------------------------------------
      LOOP:  cpu time    391.3739: real time     58.6292

 eigenvalue-minimisations  : 28928
 total energy-change (2. order) : 0.1209735E-01  (-0.1496852E+00)
 number of electron     792.0000006 magnetization 
 augmentation part      242.7794201 magnetization 

 Broyden mixing:
  rms(total) = 0.40350E+00    rms(broyden)= 0.40350E+00
  rms(prec ) = 0.46121E+00
  weight for this iteration     100.00

 eigenvalues of (default mixing * dielectric matrix)
  average eigenvalue GAMMA=   0.8021
  1.9813  0.8822  0.8822  0.2283  0.4609  0.3780

 Free energy of the ion-electron system (eV)
  ---------------------------------------------------
  alpha Z        PSCENC =      8615.69140340
  Ewald energy   TEWEN  =    -66635.40197120
  -Hartree energ DENC   =     -9445.87411742
  -exchange      EXHF   =         0.00000000
  -V(xc)+E(xc)   XCENC  =      1634.96979376
  PAW double counting   =    113700.74254278  -112710.38869398
  entropy T*S    EENTRO =         0.00568953
  eigenvalues    EBANDS =    -11374.62252950
  atomic energy  EATOM  =     75398.16640936
  Solvation  Ediel_sol  =         0.00000000
  ---------------------------------------------------
  free energy    TOTEN  =      -816.71147326 eV

  energy without entropy =     -816.71716279  energy(sigma->0) =     -816.71336977


--------------------------------------------------------------------------------------------------------




--------------------------------------- Iteration      1(  12)  ---------------------------------------


    POTLOK:  cpu time      2.0227: real time      0.2890
    SETDIJ:  cpu time      6.8994: real time      2.8822
     EDDAV:  cpu time    424.2562: real time     60.8503
       DOS:  cpu time      0.0894: real time      0.0128
    CHARGE:  cpu time      2.0248: real time      0.8032
    MIXING:  cpu time      0.0973: real time      0.0139
    --------------------------------------------
      LOOP:  cpu time    435.3896: real time     64.8513

 eigenvalue-minimisations  : 32576
 total energy-change (2. order) :-0.2869202E-01  (-0.3864456E-01)
 number of electron     792.0000006 magnetization 
 augmentation part      242.7256375 magnetization 

 Broyden mixing:
  rms(total) = 0.32655E+00    rms(broyden)= 0.32655E+00
  rms(prec ) = 0.53964E+00
  weight for this iteration     100.00

 eigenvalues of (default mixing * dielectric matrix)
  average eigenvalue GAMMA=   0.8444
  2.0234  1.2089  1.2089  0.2294  0.4989  0.4195  0.3220

 Free energy of the ion-electron system (eV)
  ---------------------------------------------------
  alpha Z        PSCENC =      8615.69140340
  Ewald energy   TEWEN  =    -66635.40197120
  -Hartree energ DENC   =     -9454.18321840
  -exchange      EXHF   =         0.00000000
  -V(xc)+E(xc)   XCENC  =      1635.41393768
  PAW double counting   =    113676.27517646  -112686.14170197
  entropy T*S    EENTRO =         0.00571869
  eigenvalues    EBANDS =    -11366.56591930
  atomic energy  EATOM  =     75398.16640936
  Solvation  Ediel_sol  =         0.00000000
  ---------------------------------------------------
  free energy    TOTEN  =      -816.74016528 eV

  energy without entropy =     -816.74588397  energy(sigma->0) =     -816.74207151


--------------------------------------------------------------------------------------------------------




--------------------------------------- Iteration      1(  13)  ---------------------------------------


    POTLOK:  cpu time      2.1317: real time      0.3051
    SETDIJ:  cpu time      6.9165: real time      2.8908
     EDDAV:  cpu time    420.5310: real time     60.4048
       DOS:  cpu time      0.0863: real time      0.0123
    CHARGE:  cpu time      2.2296: real time      0.8063
    MIXING:  cpu time      0.0823: real time      0.0119
    --------------------------------------------
      LOOP:  cpu time    431.9772: real time     64.4311

 eigenvalue-minimisations  : 32632
 total energy-change (2. order) : 0.6537616E-01  (-0.4064760E-01)
 number of electron     792.0000006 magnetization 
 augmentation part      242.6506350 magnetization 

 Broyden mixing:
  rms(total) = 0.19813E+00    rms(broyden)= 0.19813E+00
  rms(prec ) = 0.35060E+00
  weight for this iteration     100.00

 eigenvalues of (default mixing * dielectric matrix)
  average eigenvalue GAMMA=   0.8709
  2.3342  1.7573  0.9795  0.5477  0.5477  0.3577  0.2301  0.2131

 Free energy of the ion-electron system (eV)
  ---------------------------------------------------
  alpha Z        PSCENC =      8615.69140340
  Ewald energy   TEWEN  =    -66635.40197120
  -Hartree energ DENC   =     -9464.12891227
  -exchange      EXHF   =         0.00000000
  -V(xc)+E(xc)   XCENC  =      1635.94666089
  PAW double counting   =    113812.49170334  -112823.02781687
  entropy T*S    EENTRO =         0.00502492
  eigenvalues    EBANDS =    -11356.41729070
  atomic energy  EATOM  =     75398.16640936
  Solvation  Ediel_sol  =         0.00000000
  ---------------------------------------------------
  free energy    TOTEN  =      -816.67478912 eV

  energy without entropy =     -816.67981404  energy(sigma->0) =     -816.67646409


--------------------------------------------------------------------------------------------------------




--------------------------------------- Iteration      1(  14)  ---------------------------------------


    POTLOK:  cpu time      2.0608: real time      0.2944
    SETDIJ:  cpu time      6.6496: real time      2.7579
     EDDAV:  cpu time    402.7943: real time     57.8251
       DOS:  cpu time      0.0880: real time      0.0126
    CHARGE:  cpu time      2.2215: real time      0.8057
    MIXING:  cpu time      0.0892: real time      0.0127
    --------------------------------------------
      LOOP:  cpu time    413.9034: real time     61.7084

 eigenvalue-minimisations  : 30760
 total energy-change (2. order) : 0.5456087E-01  (-0.3039075E-01)
 number of electron     792.0000006 magnetization 
 augmentation part      242.5729729 magnetization 

 Broyden mixing:
  rms(total) = 0.77395E-01    rms(broyden)= 0.77395E-01
  rms(prec ) = 0.13426E+00
  weight for this iteration     100.00

 eigenvalues of (default mixing * dielectric matrix)
  average eigenvalue GAMMA=   0.8402
  2.4562  1.7634  0.9148  0.6226  0.6226  0.3926  0.3522  0.2291  0.2085

 Free energy of the ion-electron system (eV)
  ---------------------------------------------------
  alpha Z        PSCENC =      8615.69140340
  Ewald energy   TEWEN  =    -66635.40197120
  -Hartree energ DENC   =     -9471.36667286
  -exchange      EXHF   =         0.00000000
  -V(xc)+E(xc)   XCENC  =      1636.36287368
  PAW double counting   =    114188.54508841  -113200.12412368
  entropy T*S    EENTRO =         0.00537889
  eigenvalues    EBANDS =    -11348.49861426
  atomic energy  EATOM  =     75398.16640936
  Solvation  Ediel_sol  =         0.00000000
  ---------------------------------------------------
  free energy    TOTEN  =      -816.62022825 eV

  energy without entropy =     -816.62560714  energy(sigma->0) =     -816.62202121


--------------------------------------------------------------------------------------------------------




--------------------------------------- Iteration      1(  15)  ---------------------------------------


    POTLOK:  cpu time      2.0233: real time      0.2891
    SETDIJ:  cpu time      6.9544: real time      2.9093
     EDDAV:  cpu time    398.3199: real time     57.2557
       DOS:  cpu time      0.0860: real time      0.0123
    CHARGE:  cpu time      2.1816: real time      0.8038
    MIXING:  cpu time      0.0922: real time      0.0132
    --------------------------------------------
      LOOP:  cpu time    409.6574: real time     61.2834

 eigenvalue-minimisations  : 30328
 total energy-change (2. order) : 0.7854248E-02  (-0.8764860E-02)
 number of electron     792.0000006 magnetization 
 augmentation part      242.5521516 magnetization 

 Broyden mixing:
  rms(total) = 0.50449E-01    rms(broyden)= 0.50449E-01
  rms(prec ) = 0.63241E-01
  weight for this iteration     100.00

 eigenvalues of (default mixing * dielectric matrix)
  average eigenvalue GAMMA=   0.8067
  2.4816  1.7618  0.7666  0.7666  0.6464  0.4630  0.4073  0.3317  0.2292  0.2124

 Free energy of the ion-electron system (eV)
  ---------------------------------------------------
  alpha Z        PSCENC =      8615.69140340
  Ewald energy   TEWEN  =    -66635.40197120
  -Hartree energ DENC   =     -9471.47129164
  -exchange      EXHF   =         0.00000000
  -V(xc)+E(xc)   XCENC  =      1636.37934996
  PAW double counting   =    114410.50823551  -113422.40632626
  entropy T*S    EENTRO =         0.00533428
  eigenvalues    EBANDS =    -11348.08351742
  atomic energy  EATOM  =     75398.16640936
  Solvation  Ediel_sol  =         0.00000000
  ---------------------------------------------------
  free energy    TOTEN  =      -816.61237400 eV

  energy without entropy =     -816.61770828  energy(sigma->0) =     -816.61415209


--------------------------------------------------------------------------------------------------------




--------------------------------------- Iteration      1(  16)  ---------------------------------------


    POTLOK:  cpu time      2.0505: real time      0.2930
    SETDIJ:  cpu time      6.7117: real time      2.7884
     EDDAV:  cpu time    390.8398: real time     56.0564
       DOS:  cpu time      0.0895: real time      0.0128
    CHARGE:  cpu time      2.2133: real time      0.8065
    MIXING:  cpu time      0.1164: real time      0.0166
    --------------------------------------------
      LOOP:  cpu time    402.0212: real time     59.9737

 eigenvalue-minimisations  : 29928
 total energy-change (2. order) : 0.1106843E-02  (-0.1651326E-02)
 number of electron     792.0000006 magnetization 
 augmentation part      242.5519770 magnetization 

 Broyden mixing:
  rms(total) = 0.38741E-01    rms(broyden)= 0.38741E-01
  rms(prec ) = 0.42795E-01
  weight for this iteration     100.00

 eigenvalues of (default mixing * dielectric matrix)
  average eigenvalue GAMMA=   0.8525
  2.5374  1.7790  1.1399  1.1399  0.5873  0.5873  0.4088  0.4088  0.3488  0.2292
  0.2107

 Free energy of the ion-electron system (eV)
  ---------------------------------------------------
  alpha Z        PSCENC =      8615.69140340
  Ewald energy   TEWEN  =    -66635.40197120
  -Hartree energ DENC   =     -9470.71266835
  -exchange      EXHF   =         0.00000000
  -V(xc)+E(xc)   XCENC  =      1636.34375607
  PAW double counting   =    114518.58884156  -113530.51582570
  entropy T*S    EENTRO =         0.00528846
  eigenvalues    EBANDS =    -11348.77650075
  atomic energy  EATOM  =     75398.16640936
[...]
  199        setdij_                               0.893298                           20   3
  200          m_sumb_d                              0.006750                         20   4
  201        set_dd_magatom                        0.000005                            1   3
  202        set_dd_paw                            2.846908                            1   3
  203          m_sumb_d                              0.136633                          7   4
  204        strkin                                0.182560                            1   3
  205          m_sumb_d                              0.000897                          1   4
  206        strelo                                0.005414                            1   3
  207          m_sumb_d                              0.000013                          2   4
  208        strnlr                               27.086386                            1   3
  209          rspher_all                            0.959941                          9   4
  210          phaser                                6.492211                        234   4
  211          rpro_isp                             19.246877                        234   4
  212            fftwav_mpi                            0.524578                    27846   5
  213              fftwav                                0.485288                  27846   6
  214                fft3d                                 0.297249                27846   7
  215            rpromu_acc                           18.603750                     7020   5
  216          m_sumb_d                              0.286663                          1   4
  217        fft3d_mpi                             0.123221                           11   3
  218          fftbrc_mpi                            0.110707                         11   4
  219            fftbas_plan_mpi                       0.110687                       11   5
  220              dfftw_execute                         0.023495                     33   6
  221              map_forward                           0.036074                     10   6
  222                map_gather                            0.006449                    5   7
  223                m_alltoallv_z                         0.023577                    5   7
  224                map_scatter                           0.006002                    5   7
  225              map_backward                          0.050127                     12   6
  226                map_gather                            0.006113                    6   7
  227                m_alltoallv_z                         0.029146                    6   7
  228                map_scatter                           0.014816                    6   7
  229        ggaall_grid                           0.041251                            1   3
  230        m_sumb_d                              0.000257                            5   3
  231        forhar                                0.033348                            2   3
  232          m_sumb_d                              0.001608                          2   4
  233        strehar                               0.003812                            1   3
  234          m_sumb_d                              0.000096                          1   4
  235        chggra                                0.047157                            1   3
  236          fft3d_mpi                             0.042193                          3   4
  237            fftbrc_mpi                            0.040997                        3   5
  238              fftbas_plan_mpi                       0.040993                      3   6
  239                map_forward                           0.020646                    4   7
  240                  map_gather                            0.000010                  2   8
  241                  m_alltoallv_z                         0.020610                  2   8
  242                  map_scatter                           0.000007                  2   8
  243                map_backward                          0.000021                    2   7
  244                  map_gather                            0.000002                  1   8
  245                  m_alltoallv_z                         0.000013                  1   8
  246                  map_scatter                           0.000002                  1   8
  247          m_sumb_d                              0.000022                          2   4
  248          pothar                                0.000426                          1   4
  249            m_sumb_d                              0.000004                        1   5
  250        brmix                                 0.017077                            1   3
  251          m_sumb_d                              0.000202                          6   4
  252          brpre                                 0.000188                          1   4
  253          setg0                                 0.007549                          1   4
  254          broyd                                 0.006212                          1   4
  255            m_sumb_d                              0.000358                       24   5
  256            brget                                 0.001192                       94   5
  257            brsav                                 0.000558                       22   5
  258        m_bcast_d                             0.000049                            2   3
  259      potlok                                0.286602                              1   2
  260        fft3d_mpi                             0.140561                           13   3
  261          fftbrc_mpi                            0.121812                         13   4
  262            fftbas_plan_mpi                       0.121796                       13   5
  263              dfftw_execute                         0.026548                     39   6
  264              map_forward                           0.046549                     14   6
  265                map_gather                            0.007850                    8   7
  266                m_alltoallv_z                         0.030921                    8   7
  267                map_scatter                           0.007723                    8   7
  268              map_backward                          0.047525                     12   6
  269                map_gather                            0.006132                    6   7
  270                m_alltoallv_z                         0.026466                    6   7
  271                map_scatter                           0.014875                    6   7
  272        ggaall_grid                           0.041230                            1   3
  273        m_sumb_d                              0.000239                            5   3
  274        pothar                                0.008620                            1   3
  275          m_sumb_d                              0.001667                          1   4
  276        m_bcast_d                             0.002114                            1   3
  277      potlok_metagga                        0.000001                              1   2
  278      set_dd_magatom                        0.000004                              1   2
  279      set_dd_paw                            2.826226                              1   2
  280        m_sumb_d                              0.008105                            7   3
  281      densta                                0.012346                              1   2
  282        m_sumb_d                              0.000323                           42   3
 
 Flat profile
 ============
 
             routine name                   CPU           calls
 ---------------------------------------------------------------
 eddav                                 625.332782          22
 m_sumb_d                              168.788168      351426
 rpromu_acc                            116.949387       92174
 lapack                                101.798881      116354
 racc0mu_acc                            55.085503      116354
 set_dd_paw                             54.367082          20
 hamiltmu                               43.655942      116354
 newband                                35.507285      116926
 total_time                             27.100296           1
 phaser                                 25.323654         910
 m_alltoall_d                           21.824707     1693384
 orth1                                  15.414999      349088
 raccmu_                                13.396524      116354
 fft3d                                   9.861867      717702
 overl_mu                                8.899877      116354
 m_bcast_z                               7.283793      128730
 w1_copy                                 7.097875      689934
 redis_pw                                6.139050      623062
 ggemm                                   6.090661      150674
 redis_proj                              3.760445      784998
 fftwav                                  3.377153      487724
 overl                                   2.751287      391914
 lincom                                  2.377149         598
 setdij_                                 2.055725          46
 potlok                                  1.763157          19
 rspher_all                              1.404502          14
 orthch                                  1.321912           1
 eccp                                    1.264197       68068
 m_alltoallv_z                           1.258171         335
 m_bcast_d                               1.115686      232732
 kinhamil                                1.007192      229978
 fftext_mpi                              0.955401      229978
 augmentation_charge                     0.914220          18
 ggaall_grid                             0.835167          20
 vhamil                                  0.830693      229978
 fftwav_mpi                              0.784402      487724
 apply_precond                           0.659809      161910
 depsum                                  0.636410          18
 map_scatter                             0.611134         335
 fft3d_mpi                               0.605283      230276
 dfftw_execute                           0.595566         885
 elmin                                   0.536403           1
 choleski                                0.466179          26
 setup_precond                           0.443855       68068
 init_hip                                0.362927           1
 map_gather                              0.353214         335
 proall                                  0.296678           1
 densta                                  0.271648          23
 force_and_stress                        0.248314           1
 strkin                                  0.181663           1
 rpro_isp                                0.170321         338
 pothar                                  0.132687          20
 setg0                                   0.123446          19
 fftbas_plan_mpi                         0.113846         298
 pw_charge                               0.105961       55614
 soft_charge                             0.103010          18
 strnlr                                  0.100695           1
 w1_projall                              0.079617       82034
 brmix                                   0.060802          18
 stufak                                  0.049340           1
 truncate_high_frequency_w1              0.046777      298046
 fornlr                                  0.043941           1
 broyd                                   0.032904          18
 forhar                                  0.031740           2
 set_charge                              0.030016          18
 inisym                                  0.028173           1
 forloc                                  0.016836           1
 brget                                   0.010447         921
 fft_gq                                  0.006436          18
 brsav                                   0.006333         246
 strelo                                  0.005401           1
 chggra                                  0.004516           1
 strehar                                 0.003716           1
 brpre                                   0.003649          18
 rsp                                     0.003437           1
 hip_hipfft_makeplan                     0.002713           6
 brgrid                                  0.002348           1
 fewald                                  0.001514           1
 map_backward                            0.001222         314
 map_forward                             0.001186         282
 fftbrc_mpi                              0.000390         298
 rcp                                     0.000231           1
 hip_init_hipblas                        0.000159           1
 fordep                                  0.000122           1
 vectorpot                               0.000096          19
 set_dd_magatom                          0.000095          20
 crpa_reader                             0.000057           1
 hip_init_rocsolver                      0.000053           1
 potlok_metagga                          0.000021          19
 posmap                                  0.000015           2
 rotate_active_occupied_orbital          0.000007           1
 hip_hipfft_makeplans                    0.000003           3
 redis_pw_over_bands                     0.000000           1
 ---------------------------------------------------------------
  summed up times    1385.28815293312     
 
 Accumulative profile
 ====================
 
             routine name                   CPU           calls
 ---------------------------------------------------------------
 total_time                           1385.288153           1
 elmin                                1297.535897           1
 eddav                                1226.343151          22
 m_sumb_d                              168.788168      351426
 hamiltmu                              126.993726      116354
 rpromu_acc                            116.949387       92174
 lapack                                101.798881      116354
 w1_projall                             90.118058       82034
 raccmu_                                77.381904      116354
 set_dd_paw                             56.096770          20
 racc0mu_acc                            55.085503      116354
 newband                                42.877711      116926
 force_and_stress                       41.646774           1
 rpro_isp                               27.940224         338
 strnlr                                 27.086386           1
 phaser                                 25.323654         910
 m_alltoall_d                           21.824707     1693384
 redis_pw                               17.216845      623062
 orth1                                  15.414999      349088
 redis_proj                             14.507358      784998
 set_charge                             14.452275          18
 soft_charge                            12.608332          18
 fftwav_mpi                             11.001335      487724
 fftwav                                 10.216934      487724
 fft3d                                   9.861867      717702
 fornlr                                  9.020811           1
 overl_mu                                8.899877      116354
 m_bcast_z                               7.283793      128730
 w1_copy                                 7.097875      689934
 fft3d_mpi                               6.562097      230276
 orthch                                  6.239255           1
 ggemm                                   6.090661      150674
 potlok                                  5.565498          19
 kinhamil                                5.125187      229978
 fftext_mpi                              4.117994      229978
 proall                                  3.226887           1
 fftbrc_mpi                              2.934728         298
 fftbas_plan_mpi                         2.934338         298
 overl                                   2.751287      391914
 lincom                                  2.377149         598
 setdij_                                 2.070397          46
 rspher_all                              1.404502          14
 eccp                                    1.264197       68068
 map_backward                            1.260213         314
 m_alltoallv_z                           1.258171         335
 augmentation_charge                     1.131457          18
 m_bcast_d                               1.115686      232732
 map_forward                             0.964714         282
 ggaall_grid                             0.835167          20
 vhamil                                  0.830693      229978
 depsum                                  0.682470          18
 apply_precond                           0.659809      161910
 map_scatter                             0.611134         335
 dfftw_execute                           0.595566         885
 choleski                                0.466179          26
 setup_precond                           0.443855       68068
 init_hip                                0.362927           1
 map_gather                              0.353214         335
 densta                                  0.277416          23
 fordep                                  0.276123           1
 brmix                                   0.243594          18
 fft_gq                                  0.192063          18
 strkin                                  0.182560           1
 pothar                                  0.155028          20
 setg0                                   0.123446          19
 pw_charge                               0.105961       55614
 broyd                                   0.053132          18
 stufak                                  0.049340           1
 chggra                                  0.047157           1
 truncate_high_frequency_w1              0.046777      298046
 forhar                                  0.033348           2
 inisym                                  0.028188           1
 forloc                                  0.018247           1
 brget                                   0.010447         921
 brsav                                   0.006333         246
 fewald                                  0.005432           1
 strelo                                  0.005414           1
 strehar                                 0.003812           1
 brpre                                   0.003649          18
 rsp                                     0.003437           1
 hip_hipfft_makeplans                    0.002716           3
 hip_hipfft_makeplan                     0.002713           6
 brgrid                                  0.002348           1
 rcp                                     0.000231           1
 hip_init_hipblas                        0.000159           1
 vectorpot                               0.000096          19
 set_dd_magatom                          0.000095          20
 crpa_reader                             0.000057           1
 hip_init_rocsolver                      0.000053           1
 potlok_metagga                          0.000021          19
 posmap                                  0.000015           2
 rotate_active_occupied_orbital          0.000007           1
 redis_pw_over_bands                     0.000000           1
 ---------------------------------------------------------------
 
Profiling took   2.347877  1.027002  0.002909  0.002770 seconds
Profiling took   1.452521 seconds
