<?xml version="1.0" encoding="ISO-8859-1"?>
<modeling>
 <generator>
  <i name="program" type="string">vasp </i>
  <i name="version" type="string">6.3.2  </i>
  <i name="subversion" type="string">27Jun22 (build Feb 01 2023 14:57:41) complex                          parallel </i>
  <i name="platform" type="string">LinuxIFC </i>
  <i name="date" type="string">2023 11 30 </i>
  <i name="time" type="string">00:47:41 </i>
 </generator>
 <incar>
  <i type="string" name="PREC">Accurate</i>
  <i type="string" name="ALGO">normal</i>
  <i type="int" name="NELM">   400</i>
  <i name="EDIFF">      0.00001000</i>
  <i type="int" name="NSW">     0</i>
  <i type="int" name="ISIF">     2</i>
  <i name="ENCUT">    520.00000000</i>
  <i type="string" name="LREAL">Auto</i>
  <i type="int" name="ISMEAR">     1</i>
  <i name="SIGMA">      0.10000000</i>
  <i name="KSPACING">      0.20000000</i>
  <i type="logical" name="LWAVE"> F  </i>
  <i type="logical" name="LCHARG"> F  </i>
  <i type="logical" name="LASPH"> T  </i>
 </incar>
 <primitive_cell>
  <structure name="primitive_cell" >
   <crystal>
    <varray name="basis" >
     <v>      10.11386021       0.00000000       0.00000000 </v>
     <v>       0.00000000      10.11386021       0.00000000 </v>
     <v>       0.00000000       0.00000000      13.48514695 </v>
    </varray>
    <i name="volume">   1379.39795121 </i>
    <varray name="rec_basis" >
     <v>       0.09887422       0.00000000       0.00000000 </v>
     <v>       0.00000000       0.09887422       0.00000000 </v>
     <v>       0.00000000       0.00000000       0.07415566 </v>
    </varray>
   </crystal>
   <varray name="positions" >
    <v>       0.99312922       0.98790471       0.02250242 </v>
    <v>       0.22821950       0.15084054       0.13162137 </v>
    <v>       0.02263459       0.02458380       0.28020855 </v>
    <v>       0.19906050       0.19237463       0.39162669 </v>
    <v>       0.99510868       0.03955771       0.49080989 </v>
    <v>       0.16937846       0.16438235       0.61652376 </v>
    <v>       0.97107928       0.04112575       0.71074446 </v>
    <v>       0.16919357       0.13746582       0.87757097 </v>
    <v>       0.99910807       0.30829871       0.99090307 </v>
    <v>       0.04144057       0.33675570       0.23501586 </v>
    <v>       0.98267129       0.33949749       0.49765742 </v>
    <v>       0.99718605       0.32513403       0.76497301 </v>
    <v>       0.16626887       0.51243640       0.11958664 </v>
    <v>       0.01964582       0.70233718       0.01527514 </v>
    <v>       0.20421383       0.49421784       0.37603101 </v>
    <v>       0.97207396       0.67265317       0.24428458 </v>
    <v>       0.16400267       0.48446389       0.64023577 </v>
    <v>       0.04311065       0.61896447       0.48546401 </v>
    <v>       0.14822828       0.52099100       0.87804557 </v>
    <v>       0.97415427       0.66260063       0.76437977 </v>
    <v>       0.19336733       0.85716630       0.14519482 </v>
    <v>       0.17349954       0.80238603       0.36582275 </v>
    <v>       0.09542708       0.81318606       0.61514669 </v>
    <v>       0.14698345       0.83608829       0.86793815 </v>
    <v>       0.35086703       0.98418209       0.97593104 </v>
    <v>       0.39005484       0.01720882       0.29632851 </v>
    <v>       0.32020218       0.98721753       0.49999703 </v>
    <v>       0.33839899       0.97996610       0.73787579 </v>
    <v>       0.30325613       0.29846073       0.00643868 </v>
    <v>       0.34911399       0.29603436       0.24761269 </v>
    <v>       0.32929169       0.36718227       0.52099050 </v>
    <v>       0.30754628       0.32322773       0.77602962 </v>
    <v>       0.32542175       0.65680759       0.01116029 </v>
    <v>       0.36006728       0.65364163       0.25688511 </v>
    <v>       0.32851948       0.63231051       0.49133788 </v>
    <v>       0.31796268       0.66391862       0.77218836 </v>
    <v>       0.51799016       0.15068036       0.09434554 </v>
    <v>       0.68078359       0.97512225       0.95759976 </v>
    <v>       0.52045312       0.20628623       0.39809306 </v>
    <v>       0.68649259       0.99475552       0.25013991 </v>
    <v>       0.46098127       0.22994683       0.61560497 </v>
    <v>       0.61957057       0.00507163       0.48978951 </v>
    <v>       0.50812845       0.16061030       0.84439373 </v>
    <v>       0.64239963       0.98941452       0.69765598 </v>
    <v>       0.67699473       0.33945892       0.02348573 </v>
    <v>       0.66437542       0.34612206       0.24233058 </v>
    <v>       0.65854382       0.34896370       0.51465983 </v>
    <v>       0.67492530       0.33191087       0.75291530 </v>
    <v>       0.51490133       0.51189160       0.12270192 </v>
    <v>       0.60547407       0.70866316       0.98401401 </v>
    <v>       0.53908300       0.49952540       0.39753096 </v>
    <v>       0.67777683       0.65883154       0.23431954 </v>
    <v>       0.46058775       0.48635239       0.66530632 </v>
    <v>       0.67031875       0.67412442       0.48333277 </v>
    <v>       0.50848044       0.47362926       0.89525709 </v>
    <v>       0.62764464       0.66826315       0.74307484 </v>
    <v>       0.49319350       0.83208586       0.13168069 </v>
    <v>       0.49823806       0.82733496       0.39356290 </v>
    <v>       0.46390004       0.81693734       0.61502507 </v>
    <v>       0.47708293       0.82703636       0.82795342 </v>
    <v>       0.84642065       0.14999912       0.12563256 </v>
    <v>       0.83311514       0.18458631       0.36785461 </v>
    <v>       0.80516241       0.19573932       0.60563326 </v>
    <v>       0.80296840       0.16276279       0.85774916 </v>
    <v>       0.85569999       0.48461023       0.11759482 </v>
    <v>       0.83757140       0.50027883       0.34701539 </v>
    <v>       0.81132030       0.52657146       0.63963437 </v>
    <v>       0.81686813       0.50047361       0.90819726 </v>
    <v>       0.87977982       0.83842864       0.15238421 </v>
    <v>       0.88496379       0.83148965       0.40163103 </v>
    <v>       0.82196114       0.81782128       0.62073358 </v>
    <v>       0.86596116       0.85865337       0.86083404 </v>
   </varray>
  </structure>
  <varray name="primitive_index" >
   <v type="int" >        1 </v>
   <v type="int" >        2 </v>
   <v type="int" >        3 </v>
   <v type="int" >        4 </v>
   <v type="int" >        5 </v>
   <v type="int" >        6 </v>
   <v type="int" >        7 </v>
   <v type="int" >        8 </v>
   <v type="int" >        9 </v>
   <v type="int" >       10 </v>
   <v type="int" >       11 </v>
   <v type="int" >       12 </v>
   <v type="int" >       13 </v>
   <v type="int" >       14 </v>
   <v type="int" >       15 </v>
   <v type="int" >       16 </v>
   <v type="int" >       17 </v>
   <v type="int" >       18 </v>
   <v type="int" >       19 </v>
   <v type="int" >       20 </v>
   <v type="int" >       21 </v>
   <v type="int" >       22 </v>
   <v type="int" >       23 </v>
   <v type="int" >       24 </v>
   <v type="int" >       25 </v>
   <v type="int" >       26 </v>
   <v type="int" >       27 </v>
   <v type="int" >       28 </v>
   <v type="int" >       29 </v>
   <v type="int" >       30 </v>
   <v type="int" >       31 </v>
   <v type="int" >       32 </v>
   <v type="int" >       33 </v>
   <v type="int" >       34 </v>
   <v type="int" >       35 </v>
   <v type="int" >       36 </v>
   <v type="int" >       37 </v>
   <v type="int" >       38 </v>
   <v type="int" >       39 </v>
   <v type="int" >       40 </v>
   <v type="int" >       41 </v>
   <v type="int" >       42 </v>
   <v type="int" >       43 </v>
   <v type="int" >       44 </v>
   <v type="int" >       45 </v>
   <v type="int" >       46 </v>
   <v type="int" >       47 </v>
   <v type="int" >       48 </v>
   <v type="int" >       49 </v>
   <v type="int" >       50 </v>
   <v type="int" >       51 </v>
   <v type="int" >       52 </v>
   <v type="int" >       53 </v>
   <v type="int" >       54 </v>
   <v type="int" >       55 </v>
   <v type="int" >       56 </v>
   <v type="int" >       57 </v>
   <v type="int" >       58 </v>
   <v type="int" >       59 </v>
   <v type="int" >       60 </v>
   <v type="int" >       61 </v>
   <v type="int" >       62 </v>
   <v type="int" >       63 </v>
   <v type="int" >       64 </v>
   <v type="int" >       65 </v>
   <v type="int" >       66 </v>
   <v type="int" >       67 </v>
   <v type="int" >       68 </v>
   <v type="int" >       69 </v>
   <v type="int" >       70 </v>
   <v type="int" >       71 </v>
   <v type="int" >       72 </v>
  </varray>
 </primitive_cell>
 <kpoints>
  <generation param="Gamma">
   <v type="int" name="divisions">       4        4        3 </v>
   <v name="usershift">      0.00000000       0.00000000       0.00000000 </v>
   <v name="genvec1">      0.25000000       0.00000000       0.00000000 </v>
   <v name="genvec2">      0.00000000       0.25000000       0.00000000 </v>
   <v name="genvec3">      0.00000000       0.00000000       0.33333333 </v>
   <v name="shift">      0.00000000       0.00000000       0.00000000 </v>
  </generation>
  <varray name="kpointlist" >
   <v>       0.00000000       0.00000000       0.00000000 </v>
   <v>       0.25000000       0.00000000       0.00000000 </v>
   <v>       0.00000000       0.25000000       0.00000000 </v>
   <v>       0.50000000       0.00000000       0.00000000 </v>
   <v>       0.00000000       0.50000000       0.00000000 </v>
   <v>       0.25000000       0.25000000       0.00000000 </v>
   <v>      -0.25000000       0.25000000       0.00000000 </v>
   <v>       0.50000000       0.25000000       0.00000000 </v>
   <v>      -0.25000000       0.50000000       0.00000000 </v>
   <v>       0.50000000       0.50000000       0.00000000 </v>
   <v>       0.00000000       0.00000000       0.33333333 </v>
   <v>       0.25000000       0.00000000       0.33333333 </v>
   <v>       0.00000000       0.25000000       0.33333333 </v>
   <v>      -0.25000000       0.00000000       0.33333333 </v>
   <v>       0.00000000      -0.25000000       0.33333333 </v>
   <v>       0.50000000       0.00000000       0.33333333 </v>
   <v>       0.00000000       0.50000000       0.33333333 </v>
   <v>       0.25000000       0.25000000       0.33333333 </v>
   <v>      -0.25000000       0.25000000       0.33333333 </v>
   <v>      -0.25000000      -0.25000000       0.33333333 </v>
   <v>       0.25000000      -0.25000000       0.33333333 </v>
   <v>       0.50000000       0.25000000       0.33333333 </v>
   <v>      -0.25000000       0.50000000       0.33333333 </v>
   <v>       0.50000000      -0.25000000       0.33333333 </v>
   <v>       0.25000000       0.50000000       0.33333333 </v>
   <v>       0.50000000       0.50000000       0.33333333 </v>
  </varray>
  <varray name="weights" >
   <v>       0.02083333 </v>
   <v>       0.04166667 </v>
   <v>       0.04166667 </v>
   <v>       0.02083333 </v>
   <v>       0.02083333 </v>
   <v>       0.04166667 </v>
   <v>       0.04166667 </v>
   <v>       0.04166667 </v>
   <v>       0.04166667 </v>
   <v>       0.02083333 </v>
   <v>       0.04166667 </v>
   <v>       0.04166667 </v>
   <v>       0.04166667 </v>
   <v>       0.04166667 </v>
   <v>       0.04166667 </v>
   <v>       0.04166667 </v>
   <v>       0.04166667 </v>
   <v>       0.04166667 </v>
   <v>       0.04166667 </v>
   <v>       0.04166667 </v>
   <v>       0.04166667 </v>
   <v>       0.04166667 </v>
   <v>       0.04166667 </v>
   <v>       0.04166667 </v>
   <v>       0.04166667 </v>
   <v>       0.04166667 </v>
  </varray>
 </kpoints>
 <parameters>
  <separator name="general" >
   <i type="string" name="SYSTEM">unknown system</i>
   <i type="logical" name="LCOMPAT"> F  </i>
  </separator>
  <separator name="electronic" >
   <i type="string" name="PREC">accura</i>
   <i name="ENMAX">    520.00000000</i>
   <i name="ENAUG">    377.42100000</i>
   <i name="EDIFF">      0.00001000</i>
   <i type="int" name="IALGO">    38</i>
   <i type="int" name="IWAVPR">    10</i>
   <i type="int" name="NBANDS">   476</i>
   <i type="int" name="NBANDSLOW">    -1</i>
   <i type="int" name="NBANDSHIGH">    -1</i>
   <i name="NELECT">    792.00000000</i>
   <i type="int" name="TURBO">     0</i>
   <i type="int" name="IRESTART">     0</i>
   <i type="int" name="NREBOOT">     0</i>
   <i type="int" name="NMIN">     0</i>
   <i name="EREF">      0.00000000</i>
   <separator name="electronic smearing" >
    <i type="int" name="ISMEAR">     1</i>
    <i name="SIGMA">      0.10000000</i>
    <i name="KSPACING">      0.20000000</i>
    <i type="logical" name="KGAMMA"> T  </i>
    <i type="logical" name="KBLOWUP"> T  </i>
   </separator>
   <separator name="electronic projectors" >
    <i type="logical" name="LREAL"> T  </i>
    <v name="ROPT">     -0.00025000</v>
    <i type="int" name="LMAXPAW">  -100</i>
    <i type="int" name="LMAXMIX">     2</i>
    <i type="logical" name="NLSPLINE"> F  </i>
   </separator>
   <separator name="electronic startup" >
    <i type="int" name="ISTART">     0</i>
    <i type="int" name="ICHARG">     2</i>
    <i type="int" name="INIWAV">     1</i>
   </separator>
   <separator name="electronic spin" >
    <i type="int" name="ISPIN">     1</i>
    <i type="logical" name="LNONCOLLINEAR"> F  </i>
    <v name="MAGMOM">      1.00000000      1.00000000      1.00000000      1.00000000      1.00000000      1.00000000      1.00000000      1.00000000      1.00000000      1.00000000      1.00000000      1.00000000      1.00000000      1.00000000      1.00000000      1.00000000      1.00000000      1.00000000      1.00000000      1.00000000
      1.00000000      1.00000000      1.00000000      1.00000000      1.00000000      1.00000000      1.00000000      1.00000000      1.00000000      1.00000000      1.00000000      1.00000000      1.00000000      1.00000000      1.00000000      1.00000000      1.00000000      1.00000000      1.00000000      1.00000000
      1.00000000      1.00000000      1.00000000      1.00000000      1.00000000      1.00000000      1.00000000      1.00000000      1.00000000      1.00000000      1.00000000      1.00000000      1.00000000      1.00000000      1.00000000      1.00000000      1.00000000      1.00000000      1.00000000      1.00000000
      1.00000000      1.00000000      1.00000000      1.00000000      1.00000000      1.00000000      1.00000000      1.00000000      1.00000000      1.00000000      1.00000000      1.00000000</v>
    <i name="NUPDOWN">     -1.00000000</i>
    <i type="logical" name="LSORBIT"> F  </i>
    <v name="SAXIS">      0.00000000      0.00000000      1.00000000</v>
    <i type="logical" name="LSPIRAL"> F  </i>
    <v name="QSPIRAL">      0.00000000      0.00000000      0.00000000</v>
    <i type="logical" name="LZEROZ"> F  </i>
   </separator>
   <separator name="electronic exchange-correlation" >
    <i type="logical" name="LASPH"> T  </i>
    <i type="logical" name="LMETAGGA"> F  </i>
   </separator>
   <separator name="electronic convergence" >
    <i type="int" name="NELM">   400</i>
    <i type="int" name="NELMDL">    -5</i>
    <i type="int" name="NELMIN">     2</i>
    <i name="ENINI">    520.00000000</i>
    <separator name="electronic convergence detail" >
     <i type="logical" name="LDIAG"> T  </i>
     <i type="logical" name="LSUBROT"> F  </i>
     <i name="WEIMIN">      0.00000000</i>
     <i name="EBREAK">      0.00000001</i>
     <i name="DEPER">      0.30000000</i>
     <i type="int" name="NRMM">     4</i>
     <i name="TIME">      0.40000000</i>
    </separator>
   </separator>
   <separator name="electronic mixer" >
    <i name="AMIX">      0.40000000</i>
    <i name="BMIX">      1.00000000</i>
    <i name="AMIN">      0.10000000</i>
    <i name="AMIX_MAG">      1.60000000</i>
    <i name="BMIX_MAG">      1.00000000</i>
    <separator name="electronic mixer details" >
     <i type="int" name="IMIX">     4</i>
     <i type="logical" name="MIXFIRST"> F  </i>
     <i type="int" name="MAXMIX">   -45</i>
     <i name="WC">    100.00000000</i>
     <i type="int" name="INIMIX">     1</i>
     <i type="int" name="MIXPRE">     1</i>
     <i type="int" name="MREMOVE">     5</i>
    </separator>
   </separator>
   <separator name="electronic dipolcorrection" >
    <i type="logical" name="LDIPOL"> F  </i>
    <i type="logical" name="LMONO"> F  </i>
    <i type="int" name="IDIPOL">     0</i>
    <i name="EPSILON">      1.00000000</i>
    <v name="DIPOL">   -100.00000000   -100.00000000   -100.00000000</v>
    <i name="EFIELD">      0.00000000</i>
   </separator>
  </separator>
  <separator name="grids" >
   <i type="int" name="NGX">    80</i>
   <i type="int" name="NGY">    80</i>
   <i type="int" name="NGZ">   100</i>
   <i type="int" name="NGXF">   160</i>
   <i type="int" name="NGYF">   160</i>
   <i type="int" name="NGZF">   200</i>
   <i type="logical" name="ADDGRID"> F  </i>
  </separator>
  <separator name="ionic" >
   <i type="int" name="NSW">     0</i>
   <i type="int" name="IBRION">    -1</i>
   <i type="int" name="MDALGO">     0</i>
   <i type="int" name="ISIF">     2</i>
   <i name="PSTRESS">      0.00000000</i>
   <i name="EDIFFG">      0.00010000</i>
   <i type="int" name="NFREE">     0</i>
   <i name="POTIM">      0.50000000</i>
   <i name="SMASS">     -3.00000000</i>
   <i name="SCALEE">      1.00000000</i>
  </separator>
  <separator name="ionic md" >
   <i name="TEBEG">      0.00010000</i>
   <i name="TEEND">      0.00010000</i>
   <i type="int" name="NBLOCK">     1</i>
   <i type="int" name="KBLOCK">     1</i>
   <i type="int" name="NPACO">   256</i>
   <i name="APACO">     10.00000000</i>
  </separator>
  <separator name="symmetry" >
   <i type="int" name="ISYM">     2</i>
   <i name="SYMPREC">      0.00001000</i>
  </separator>
  <separator name="dos" >
   <i type="int" name="LORBIT">     0</i>
   <v name="RWIGS">     -1.00000000</v>
   <i type="int" name="NEDOS">   301</i>
   <i name="EMIN">     10.00000000</i>
   <i name="EMAX">    -10.00000000</i>
   <i name="EFERMI">      0.00000000</i>
  </separator>
  <separator name="writing" >
   <i type="int" name="NWRITE">     2</i>
   <i type="logical" name="LWAVE"> F  </i>
   <i type="logical" name="LDOWNSAMPLE"> F  </i>
   <i type="logical" name="LCHARG"> F  </i>
   <i type="logical" name="LPARD"> F  </i>
   <i type="logical" name="LVTOT"> F  </i>
   <i type="logical" name="LVHAR"> F  </i>
   <i type="logical" name="LELF"> F  </i>
   <i type="logical" name="LOPTICS"> F  </i>
   <v name="STM">      0.00000000      0.00000000      0.00000000      0.00000000      0.00000000      0.00000000      0.00000000</v>
  </separator>
  <separator name="performance" >
   <i type="int" name="NPAR">     4</i>
   <i type="int" name="NSIM">     4</i>
   <i type="int" name="NBLK">    -1</i>
   <i type="logical" name="LPLANE"> T  </i>
   <i type="logical" name="LSCALAPACK"> T  </i>
   <i type="logical" name="LSCAAWARE"> F  </i>
   <i type="logical" name="LSCALU"> F  </i>
   <i type="logical" name="LASYNC"> F  </i>
   <i type="logical" name="LORBITALREAL"> F  </i>
  </separator>
  <separator name="miscellaneous" >
   <i type="int" name="IDIOT">     3</i>
   <i type="int" name="PHON_NSTRUCT">    -1</i>
   <i type="logical" name="LMUSIC"> F  </i>
   <v name="POMASS">    180.94800000</v>
   <v name="DARWINR">      0.00000000</v>
   <v name="DARWINV">      1.00000000</v>
   <i type="logical" name="LCORR"> T  </i>
  </separator>
  <i type="logical" name="GGA_COMPAT"> T  </i>
  <i type="logical" name="LBERRY"> F  </i>
  <i type="int" name="ICORELEVEL">     0</i>
  <i type="logical" name="LDAU"> F  </i>
  <i type="int" name="I_CONSTRAINED_M">     0</i>
  <separator name="electronic exchange-correlation" >
   <i type="string" name="GGA">--</i>
   <i type="int" name="VOSKOWN">     0</i>
   <i type="logical" name="LHFCALC"> F  </i>
   <i type="string" name="PRECFOCK"></i>
   <i type="logical" name="LSYMGRAD"> F  </i>
   <i type="logical" name="LHFONE"> F  </i>
   <i type="logical" name="LRHFCALC"> F  </i>
   <i type="logical" name="LTHOMAS"> F  </i>
   <i type="logical" name="LMODELHF"> F  </i>
   <i type="logical" name="LFOCKACE"> F  </i>
   <i name="ENCUT4O">     -1.00000000</i>
   <i type="int" name="EXXOEP">     0</i>
   <i type="int" name="FOURORBIT">     0</i>
   <i name="AEXX">      0.00000000</i>
   <i name="HFALPHA">      0.00000000</i>
   <i name="MCALPHA">      0.00000000</i>
   <i name="ALDAX">      1.00000000</i>
   <i name="AGGAX">      1.00000000</i>
   <i name="ALDAC">      1.00000000</i>
   <i name="AGGAC">      1.00000000</i>
   <i type="int" name="NKREDX">     1</i>
   <i type="int" name="NKREDY">     1</i>
   <i type="int" name="NKREDZ">     1</i>
   <i type="logical" name="SHIFTRED"> F  </i>
   <i type="logical" name="ODDONLY"> F  </i>
   <i type="logical" name="EVENONLY"> F  </i>
   <i type="int" name="LMAXFOCK">     0</i>
   <i type="int" name="NMAXFOCKAE">     0</i>
   <i type="logical" name="LFOCKAEDFT"> F  </i>
   <i name="HFSCREEN">      0.00000000</i>
   <i name="HFSCREENC">      0.00000000</i>
   <i type="int" name="NBANDSGWLOW">     0</i>
  </separator>
  <separator name="vdW DFT" >
   <i type="logical" name="LUSE_VDW"> F  </i>
   <i name="Zab_VDW">     -0.84910000</i>
   <i name="PARAM1">      0.12340000</i>
   <i name="PARAM2">      1.00000000</i>
   <i name="PARAM3">      0.00000000</i>
  </separator>
  <separator name="model GW" >
   <i type="int" name="MODEL_GW">     0</i>
   <i name="MODEL_EPS0">     11.49498293</i>
   <i name="MODEL_ALPHA">      1.00000000</i>
  </separator>
  <separator name="linear response parameters" >
   <i type="logical" name="LEPSILON"> F  </i>
   <i type="logical" name="LRPA"> F  </i>
   <i type="logical" name="LNABLA"> F  </i>
   <i type="logical" name="LVEL"> F  </i>
   <i name="CSHIFT">      0.10000000</i>
   <i name="OMEGAMAX">     -1.00000000</i>
   <i name="DEG_THRESHOLD">      0.00200000</i>
   <i name="RTIME">     -0.10000000</i>
   <i name="WPLASMAI">      0.00000000</i>
   <v name="DFIELD">      0.00000000      0.00000000      0.00000000</v>
   <v name="WPLASMA">      0.00000000      0.00000000      0.00000000      0.00000000      0.00000000      0.00000000      0.00000000      0.00000000      0.00000000</v>
  </separator>
  <separator name="orbital magnetization" >
   <i type="logical" name="NUCIND"> F  </i>
   <v name="MAGPOS">      0.00000000      0.00000000      0.00000000</v>
   <i type="logical" name="LNICSALL"> T  </i>
   <i type="logical" name="ORBITALMAG"> F  </i>
   <i type="logical" name="LMAGBLOCH"> F  </i>
   <i type="logical" name="LCHIMAG"> F  </i>
   <i type="logical" name="LGAUGE"> T  </i>
   <i type="int" name="MAGATOM">     0</i>
   <v name="MAGDIPOL">      0.00000000      0.00000000      0.00000000</v>
   <v name="AVECCONST">      0.00000000      0.00000000      0.00000000</v>
  </separator>
  <separator name="response functions" >
   <i type="logical" name="LFINITE_TEMPERATURE"> F  </i>
   <i type="logical" name="LADDER"> F  </i>
   <i type="logical" name="LRPAFORCE"> F  </i>
   <i type="logical" name="LFXC"> F  </i>
   <i type="logical" name="LHARTREE"> T  </i>
   <i type="int" name="IBSE">     0</i>
   <v type="int" name="KPOINT">    -1     0     0     0</v>
   <i type="logical" name="LTCTC"> F  </i>
   <i type="logical" name="LTCTE"> F  </i>
   <i type="logical" name="LTETE"> F  </i>
   <i type="logical" name="LTRIPLET"> F  </i>
   <i type="logical" name="LFXCEPS"> F  </i>
   <i type="logical" name="LFXHEG"> F  </i>
   <i type="int" name="NATURALO">     2</i>
   <i type="logical" name="LHOLEGF"> F  </i>
   <i type="logical" name="L2ORDER"> F  </i>
   <i type="logical" name="LDMP1"> F  </i>
   <i type="logical" name="LMP2LT"> F  </i>
   <i type="logical" name="LSMP2LT"> F  </i>
   <i type="logical" name="LGWLF"> F  </i>
   <i name="ENCUTGW">     -2.00000000</i>
   <i name="ENCUTGWSOFT">     -2.00000000</i>
   <i name="ENCUTLF">     -1.00000000</i>
   <i type="logical" name="LESF_SPLINES"> F  </i>
   <i type="int" name="LMAXMP2">    -1</i>
   <i name="SCISSOR">      0.00000000</i>
   <i type="int" name="NOMEGA">     0</i>
   <i type="int" name="NOMEGAR">     0</i>
   <i type="int" name="NBANDSGW">    -1</i>
   <i type="int" name="NBANDSO">    -1</i>
   <i type="int" name="NBANDSV">    -1</i>
   <i type="int" name="NELMGW">     1</i>
   <i type="int" name="NELMHF">     1</i>
   <i type="int" name="DIM">     3</i>
   <i type="int" name="IESPILON">     4</i>
   <i type="int" name="ANTIRES">     0</i>
   <i name="OMEGAMAX">    -30.00000000</i>
   <i name="OMEGAMIN">    -30.00000000</i>
   <i name="OMEGATL">   -200.00000000</i>
   <i type="int" name="OMEGAGRID">     0</i>
   <i name="CSHIFT">     -0.10000000</i>
   <i type="logical" name="LSELFENERGY"> F  </i>
   <i type="logical" name="LSPECTRAL"> F  </i>
   <i type="logical" name="LSPECTRALGW"> F  </i>
   <i type="logical" name="LSINGLES"> F  </i>
   <i type="logical" name="LFERMIGW"> F  </i>
   <i type="logical" name="ODDONLYGW"> F  </i>
   <i type="logical" name="EVENONLYGW"> F  </i>
   <i type="int" name="NKREDLFX">     1</i>
   <i type="int" name="NKREDLFY">     1</i>
   <i type="int" name="NKREDLFZ">     1</i>
   <i type="int" name="MAXMEM">  2800</i>
   <i type="int" name="TELESCOPE">     0</i>
   <i type="int" name="NTAUPAR">    -1</i>
   <i type="int" name="NOMEGAPAR">    -1</i>
   <i name="DAMP_NEWTON">      0.80000001</i>
   <i name="LAMBDA">      1.00000000</i>
  </separator>
  <separator name="External order field" >
   <i name="OFIELD_KAPPA">      0.00000000</i>
   <v name="OFIELD_K">      0.00000000      0.00000000      0.00000000</v>
   <i name="OFIELD_Q6_NEAR">      0.00000000</i>
   <i name="OFIELD_Q6_FAR">      0.00000000</i>
   <i name="OFIELD_A">      0.00000000</i>
  </separator>
  <separator name="optional k-points parameters" >
   <i type="int" name="KPOINTS_OPT_MODE">     1</i>
   <i type="logical" name="LKPOINTS_OPT"> F  </i>
  </separator>
 </parameters>
 <atominfo>
  <atoms>      72 </atoms>
  <types>       1 </types>
  <array name="atoms" >
   <dimension dim="1">ion</dimension>
   <field type="string">element</field>
   <field type="int">atomtype</field>
   <set>
    <rc><c>Ta</c><c>   1</c></rc>
    <rc><c>Ta</c><c>   1</c></rc>
    <rc><c>Ta</c><c>   1</c></rc>
    <rc><c>Ta</c><c>   1</c></rc>
    <rc><c>Ta</c><c>   1</c></rc>
    <rc><c>Ta</c><c>   1</c></rc>
    <rc><c>Ta</c><c>   1</c></rc>
    <rc><c>Ta</c><c>   1</c></rc>
    <rc><c>Ta</c><c>   1</c></rc>
    <rc><c>Ta</c><c>   1</c></rc>
    <rc><c>Ta</c><c>   1</c></rc>
    <rc><c>Ta</c><c>   1</c></rc>
    <rc><c>Ta</c><c>   1</c></rc>
    <rc><c>Ta</c><c>   1</c></rc>
    <rc><c>Ta</c><c>   1</c></rc>
    <rc><c>Ta</c><c>   1</c></rc>
    <rc><c>Ta</c><c>   1</c></rc>
    <rc><c>Ta</c><c>   1</c></rc>
    <rc><c>Ta</c><c>   1</c></rc>
    <rc><c>Ta</c><c>   1</c></rc>
    <rc><c>Ta</c><c>   1</c></rc>
    <rc><c>Ta</c><c>   1</c></rc>
    <rc><c>Ta</c><c>   1</c></rc>
    <rc><c>Ta</c><c>   1</c></rc>
    <rc><c>Ta</c><c>   1</c></rc>
    <rc><c>Ta</c><c>   1</c></rc>
    <rc><c>Ta</c><c>   1</c></rc>
    <rc><c>Ta</c><c>   1</c></rc>
    <rc><c>Ta</c><c>   1</c></rc>
    <rc><c>Ta</c><c>   1</c></rc>
    <rc><c>Ta</c><c>   1</c></rc>
    <rc><c>Ta</c><c>   1</c></rc>
    <rc><c>Ta</c><c>   1</c></rc>
    <rc><c>Ta</c><c>   1</c></rc>
    <rc><c>Ta</c><c>   1</c></rc>
    <rc><c>Ta</c><c>   1</c></rc>
    <rc><c>Ta</c><c>   1</c></rc>
    <rc><c>Ta</c><c>   1</c></rc>
    <rc><c>Ta</c><c>   1</c></rc>
    <rc><c>Ta</c><c>   1</c></rc>
    <rc><c>Ta</c><c>   1</c></rc>
    <rc><c>Ta</c><c>   1</c></rc>
    <rc><c>Ta</c><c>   1</c></rc>
    <rc><c>Ta</c><c>   1</c></rc>
    <rc><c>Ta</c><c>   1</c></rc>
    <rc><c>Ta</c><c>   1</c></rc>
    <rc><c>Ta</c><c>   1</c></rc>
    <rc><c>Ta</c><c>   1</c></rc>
    <rc><c>Ta</c><c>   1</c></rc>
    <rc><c>Ta</c><c>   1</c></rc>
    <rc><c>Ta</c><c>   1</c></rc>
    <rc><c>Ta</c><c>   1</c></rc>
    <rc><c>Ta</c><c>   1</c></rc>
    <rc><c>Ta</c><c>   1</c></rc>
    <rc><c>Ta</c><c>   1</c></rc>
    <rc><c>Ta</c><c>   1</c></rc>
    <rc><c>Ta</c><c>   1</c></rc>
    <rc><c>Ta</c><c>   1</c></rc>
    <rc><c>Ta</c><c>   1</c></rc>
    <rc><c>Ta</c><c>   1</c></rc>
    <rc><c>Ta</c><c>   1</c></rc>
    <rc><c>Ta</c><c>   1</c></rc>
    <rc><c>Ta</c><c>   1</c></rc>
    <rc><c>Ta</c><c>   1</c></rc>
    <rc><c>Ta</c><c>   1</c></rc>
    <rc><c>Ta</c><c>   1</c></rc>
    <rc><c>Ta</c><c>   1</c></rc>
    <rc><c>Ta</c><c>   1</c></rc>
    <rc><c>Ta</c><c>   1</c></rc>
    <rc><c>Ta</c><c>   1</c></rc>
    <rc><c>Ta</c><c>   1</c></rc>
    <rc><c>Ta</c><c>   1</c></rc>
   </set>
  </array>
  <array name="atomtypes" >
   <dimension dim="1">type</dimension>
   <field type="int">atomspertype</field>
   <field type="string">element</field>
   <field>mass</field>
   <field>valence</field>
   <field type="string">pseudopotential</field>
   <set>
    <rc><c>  72</c><c>Ta</c><c>    180.94800000</c><c>     11.00000000</c><c>  PAW_PBE Ta_pv 07Sep2000               </c></rc>
   </set>
  </array>
 </atominfo>
 <structure name="initialpos" >
  <crystal>
   <varray name="basis" >
    <v>      10.11386021       0.00000000       0.00000000 </v>
    <v>       0.00000000      10.11386021       0.00000000 </v>
    <v>       0.00000000       0.00000000      13.48514695 </v>
   </varray>
   <i name="volume">   1379.39795121 </i>
   <varray name="rec_basis" >
    <v>       0.09887422       0.00000000       0.00000000 </v>
    <v>       0.00000000       0.09887422       0.00000000 </v>
    <v>       0.00000000       0.00000000       0.07415566 </v>
   </varray>
  </crystal>
  <varray name="positions" >
   <v>       0.99312922       0.98790471       0.02250242 </v>
   <v>       0.22821950       0.15084054       0.13162137 </v>
   <v>       0.02263459       0.02458380       0.28020855 </v>
   <v>       0.19906050       0.19237463       0.39162669 </v>
   <v>       0.99510868       0.03955771       0.49080989 </v>
   <v>       0.16937846       0.16438235       0.61652376 </v>
   <v>       0.97107928       0.04112575       0.71074446 </v>
   <v>       0.16919357       0.13746582       0.87757097 </v>
   <v>       0.99910807       0.30829871       0.99090307 </v>
   <v>       0.04144057       0.33675570       0.23501586 </v>
   <v>       0.98267129       0.33949749       0.49765742 </v>
   <v>       0.99718605       0.32513403       0.76497301 </v>
   <v>       0.16626887       0.51243640       0.11958664 </v>
   <v>       0.01964582       0.70233718       0.01527514 </v>
   <v>       0.20421383       0.49421784       0.37603101 </v>
   <v>       0.97207396       0.67265317       0.24428458 </v>
   <v>       0.16400267       0.48446389       0.64023577 </v>
   <v>       0.04311065       0.61896447       0.48546401 </v>
   <v>       0.14822828       0.52099100       0.87804557 </v>
   <v>       0.97415427       0.66260063       0.76437977 </v>
   <v>       0.19336733       0.85716630       0.14519482 </v>
   <v>       0.17349954       0.80238603       0.36582275 </v>
   <v>       0.09542708       0.81318606       0.61514669 </v>
   <v>       0.14698345       0.83608829       0.86793815 </v>
   <v>       0.35086703       0.98418209       0.97593104 </v>
   <v>       0.39005484       0.01720882       0.29632851 </v>
   <v>       0.32020218       0.98721753       0.49999703 </v>
   <v>       0.33839899       0.97996610       0.73787579 </v>
   <v>       0.30325613       0.29846073       0.00643868 </v>
   <v>       0.34911399       0.29603436       0.24761269 </v>
   <v>       0.32929169       0.36718227       0.52099050 </v>
   <v>       0.30754628       0.32322773       0.77602962 </v>
   <v>       0.32542175       0.65680759       0.01116029 </v>
   <v>       0.36006728       0.65364163       0.25688511 </v>
   <v>       0.32851948       0.63231051       0.49133788 </v>
   <v>       0.31796268       0.66391862       0.77218836 </v>
   <v>       0.51799016       0.15068036       0.09434554 </v>
   <v>       0.68078359       0.97512225       0.95759976 </v>
   <v>       0.52045312       0.20628623       0.39809306 </v>
   <v>       0.68649259       0.99475552       0.25013991 </v>
   <v>       0.46098127       0.22994683       0.61560497 </v>
   <v>       0.61957057       0.00507163       0.48978951 </v>
   <v>       0.50812845       0.16061030       0.84439373 </v>
   <v>       0.64239963       0.98941452       0.69765598 </v>
   <v>       0.67699473       0.33945892       0.02348573 </v>
   <v>       0.66437542       0.34612206       0.24233058 </v>
   <v>       0.65854382       0.34896370       0.51465983 </v>
   <v>       0.67492530       0.33191087       0.75291530 </v>
   <v>       0.51490133       0.51189160       0.12270192 </v>
   <v>       0.60547407       0.70866316       0.98401401 </v>
   <v>       0.53908300       0.49952540       0.39753096 </v>
   <v>       0.67777683       0.65883154       0.23431954 </v>
   <v>       0.46058775       0.48635239       0.66530632 </v>
   <v>       0.67031875       0.67412442       0.48333277 </v>
   <v>       0.50848044       0.47362926       0.89525709 </v>
   <v>       0.62764464       0.66826315       0.74307484 </v>
   <v>       0.49319350       0.83208586       0.13168069 </v>
   <v>       0.49823806       0.82733496       0.39356290 </v>
   <v>       0.46390004       0.81693734       0.61502507 </v>
   <v>       0.47708293       0.82703636       0.82795342 </v>
   <v>       0.84642065       0.14999912       0.12563256 </v>
   <v>       0.83311514       0.18458631       0.36785461 </v>
   <v>       0.80516241       0.19573932       0.60563326 </v>
   <v>       0.80296840       0.16276279       0.85774916 </v>
   <v>       0.85569999       0.48461023       0.11759482 </v>
   <v>       0.83757140       0.50027883       0.34701539 </v>
   <v>       0.81132030       0.52657146       0.63963437 </v>
   <v>       0.81686813       0.50047361       0.90819726 </v>
   <v>       0.87977982       0.83842864       0.15238421 </v>
   <v>       0.88496379       0.83148965       0.40163103 </v>
   <v>       0.82196114       0.81782128       0.62073358 </v>
   <v>       0.86596116       0.85865337       0.86083404 </v>
  </varray>
 </structure>
 <calculation>
  <scstep>
   <time name="dav">  340.35   48.81</time>
   <time name="total">  349.57   52.02</time>
   <energy>
    <i name="alphaZ">   8615.69140340 </i>
    <i name="ewald"> -66635.40197120 </i>
    <i name="hartreedc"> -10478.84032624 </i>
    <i name="XCdc">   1684.97913503 </i>
    <i name="pawpsdc">  59108.28620343 </i>
    <i name="pawaedc"> -57919.72814005 </i>
    <i name="eentropy">     -0.00244804 </i>
    <i name="bandstr">   -767.21531178 </i>
    <i name="atom">  75398.16640936 </i>
    <i name="e_fr_energy">   9005.93495391 </i>
    <i name="e_wo_entrp">   9005.93740195 </i>
    <i name="e_0_energy">   9005.93576992 </i>
   </energy>
  </scstep>
  <scstep>
   <time name="dav">  342.28   48.99</time>
   <time name="total">  342.36   49.01</time>
   <energy>
    <i name="e_fr_energy">   -243.34521370 </i>
    <i name="e_wo_entrp">   -243.33931235 </i>
    <i name="e_0_energy">   -243.34324658 </i>
   </energy>
  </scstep>
  <scstep>
   <time name="dav">  409.38   58.66</time>
   <time name="total">  409.47   58.68</time>
   <energy>
    <i name="e_fr_energy">   -818.15506905 </i>
    <i name="e_wo_entrp">   -818.15780782 </i>
    <i name="e_0_energy">   -818.15598197 </i>
   </energy>
  </scstep>
  <scstep>
   <time name="dav">  390.91   55.99</time>
   <time name="total">  391.00   56.00</time>
   <energy>
    <i name="e_fr_energy">   -852.74048500 </i>
    <i name="e_wo_entrp">   -852.74472549 </i>
    <i name="e_0_energy">   -852.74189850 </i>
   </energy>
  </scstep>
  <scstep>
   <time name="dav">  411.24   58.88</time>
   <time name="total">  413.61   59.70</time>
   <energy>
    <i name="e_fr_energy">   -854.40141075 </i>
    <i name="e_wo_entrp">   -854.40684297 </i>
    <i name="e_0_energy">   -854.40322149 </i>
   </energy>
  </scstep>
  <scstep>
   <time name="dav">  409.17   58.80</time>
   <time name="total">  420.45   62.78</time>
   <energy>
    <i name="e_fr_energy">   -835.40216798 </i>
    <i name="e_wo_entrp">   -835.40214861 </i>
    <i name="e_0_energy">   -835.40216152 </i>
   </energy>
  </scstep>
  <scstep>
   <time name="dav">  447.06   64.19</time>
   <time name="total">  458.37   68.17</time>
   <energy>
    <i name="e_fr_energy">   -911.37249043 </i>
    <i name="e_wo_entrp">   -911.36450155 </i>
    <i name="e_0_energy">   -911.36982747 </i>
   </energy>
  </scstep>
  <scstep>
   <time name="dav">  454.40   65.24</time>
   <time name="total">  465.44   69.20</time>
   <energy>
    <i name="e_fr_energy">   -831.33832615 </i>
    <i name="e_wo_entrp">   -831.34020708 </i>
    <i name="e_0_energy">   -831.33895312 </i>
   </energy>
  </scstep>
  <scstep>
   <time name="dav">  409.38   58.78</time>
   <time name="total">  420.61   62.74</time>
   <energy>
    <i name="e_fr_energy">   -817.01318630 </i>
    <i name="e_wo_entrp">   -817.01935047 </i>
    <i name="e_0_energy">   -817.01524102 </i>
   </energy>
  </scstep>
  <scstep>
   <time name="dav">  394.37   56.63</time>
   <time name="total">  405.43   60.60</time>
   <energy>
    <i name="e_fr_energy">   -816.72357061 </i>
    <i name="e_wo_entrp">   -816.72886174 </i>
    <i name="e_0_energy">   -816.72533432 </i>
   </energy>
  </scstep>
  <scstep>
   <time name="dav">  379.83   54.57</time>
   <time name="total">  391.37   58.63</time>
   <energy>
    <i name="e_fr_energy">   -816.71147326 </i>
    <i name="e_wo_entrp">   -816.71716279 </i>
    <i name="e_0_energy">   -816.71336977 </i>
   </energy>
  </scstep>
  <scstep>
   <time name="dav">  424.26   60.85</time>
   <time name="total">  435.39   64.85</time>
   <energy>
    <i name="e_fr_energy">   -816.74016528 </i>
    <i name="e_wo_entrp">   -816.74588397 </i>
    <i name="e_0_energy">   -816.74207151 </i>
   </energy>
  </scstep>
  <scstep>
   <time name="dav">  420.53   60.40</time>
   <time name="total">  431.98   64.43</time>
   <energy>
    <i name="e_fr_energy">   -816.67478912 </i>
    <i name="e_wo_entrp">   -816.67981404 </i>
    <i name="e_0_energy">   -816.67646409 </i>
   </energy>
  </scstep>
  <scstep>
   <time name="dav">  402.79   57.83</time>
   <time name="total">  413.90   61.71</time>
   <energy>
    <i name="e_fr_energy">   -816.62022825 </i>
    <i name="e_wo_entrp">   -816.62560714 </i>
    <i name="e_0_energy">   -816.62202121 </i>
   </energy>
  </scstep>
  <scstep>
   <time name="dav">  398.32   57.26</time>
   <time name="total">  409.66   61.28</time>
   <energy>
    <i name="e_fr_energy">   -816.61237400 </i>
    <i name="e_wo_entrp">   -816.61770828 </i>
    <i name="e_0_energy">   -816.61415209 </i>
   </energy>
  </scstep>
  <scstep>
   <time name="dav">  390.84   56.06</time>
   <time name="total">  402.02   59.97</time>
   <energy>
    <i name="e_fr_energy">   -816.61126716 </i>
    <i name="e_wo_entrp">   -816.61655561 </i>
    <i name="e_0_energy">   -816.61302998 </i>
   </energy>
  </scstep>
  <scstep>
   <time name="dav">  391.12   56.24</time>
   <time name="total">  402.43   60.25</time>
   <energy>
    <i name="e_fr_energy">   -816.61055244 </i>
    <i name="e_wo_entrp">   -816.61580909 </i>
    <i name="e_0_energy">   -816.61230466 </i>
   </energy>
  </scstep>
  <scstep>
   <time name="dav">  391.10   56.22</time>
   <time name="total">  402.37   60.19</time>
   <energy>
    <i name="e_fr_energy">   -816.61033930 </i>
    <i name="e_wo_entrp">   -816.61569114 </i>
    <i name="e_0_energy">   -816.61212325 </i>
   </energy>
  </scstep>
  <scstep>
   <time name="dav">  388.50   56.17</time>
   <time name="total">  399.82   60.16</time>
   <energy>
    <i name="e_fr_energy">   -816.61023722 </i>
    <i name="e_wo_entrp">   -816.61556608 </i>
    <i name="e_0_energy">   -816.61201350 </i>
   </energy>
  </scstep>
  <scstep>
   <time name="dav">  349.44   51.17</time>
   <time name="total">  360.69   55.13</time>
   <energy>
    <i name="e_fr_energy">   -816.61020479 </i>
    <i name="e_wo_entrp">   -816.61552709 </i>
    <i name="e_0_energy">   -816.61197889 </i>
   </energy>
  </scstep>
  <scstep>
   <time name="dav">  278.71   47.45</time>
   <time name="total">  289.80   51.33</time>
   <energy>
    <i name="e_fr_energy">   -816.61019384 </i>
    <i name="e_wo_entrp">   -816.61552308 </i>
    <i name="e_0_energy">   -816.61197026 </i>
   </energy>
  </scstep>
  <scstep>
   <time name="dav">  176.96   37.16</time>
   <time name="total">  185.78   40.24</time>
   <energy>
    <i name="alphaZ">   8615.69140340 </i>
    <i name="ewald"> -66635.40197120 </i>
    <i name="hartreedc">  -9468.54234390 </i>
    <i name="XCdc">   1636.24469304 </i>
    <i name="pawpsdc"> 114893.37041343 </i>
    <i name="pawaedc">-113904.91750613 </i>
    <i name="eentropy">      0.00532948 </i>
    <i name="bandstr"> -11351.22661336 </i>
    <i name="atom">  75398.16640936 </i>
    <i name="e_fr_energy">   -816.61018586 </i>
    <i name="e_wo_entrp">   -816.61551535 </i>
    <i name="e_0_energy">   -816.61196236 </i>
   </energy>
  </scstep>
  <structure>
   <crystal>
    <varray name="basis" >
     <v>      10.11386021       0.00000000       0.00000000 </v>
     <v>       0.00000000      10.11386021       0.00000000 </v>
     <v>       0.00000000       0.00000000      13.48514695 </v>
    </varray>
    <i name="volume">   1379.39795121 </i>
    <varray name="rec_basis" >
     <v>       0.09887422       0.00000000       0.00000000 </v>
     <v>       0.00000000       0.09887422       0.00000000 </v>
     <v>       0.00000000       0.00000000       0.07415566 </v>
    </varray>
   </crystal>
   <varray name="positions" >
    <v>       0.99312922       0.98790471       0.02250242 </v>
    <v>       0.22821950       0.15084054       0.13162137 </v>
    <v>       0.02263459       0.02458380       0.28020855 </v>
    <v>       0.19906050       0.19237463       0.39162669 </v>
    <v>       0.99510868       0.03955771       0.49080989 </v>
    <v>       0.16937846       0.16438235       0.61652376 </v>
    <v>       0.97107928       0.04112575       0.71074446 </v>
    <v>       0.16919357       0.13746582       0.87757097 </v>
    <v>       0.99910807       0.30829871       0.99090307 </v>
    <v>       0.04144057       0.33675570       0.23501586 </v>
    <v>       0.98267129       0.33949749       0.49765742 </v>
    <v>       0.99718605       0.32513403       0.76497301 </v>
    <v>       0.16626887       0.51243640       0.11958664 </v>
    <v>       0.01964582       0.70233718       0.01527514 </v>
    <v>       0.20421383       0.49421784       0.37603101 </v>
    <v>       0.97207396       0.67265317       0.24428458 </v>
    <v>       0.16400267       0.48446389       0.64023577 </v>
    <v>       0.04311065       0.61896447       0.48546401 </v>
    <v>       0.14822828       0.52099100       0.87804557 </v>
    <v>       0.97415427       0.66260063       0.76437977 </v>
    <v>       0.19336733       0.85716630       0.14519482 </v>
    <v>       0.17349954       0.80238603       0.36582275 </v>
    <v>       0.09542708       0.81318606       0.61514669 </v>
    <v>       0.14698345       0.83608829       0.86793815 </v>
    <v>       0.35086703       0.98418209       0.97593104 </v>
    <v>       0.39005484       0.01720882       0.29632851 </v>
    <v>       0.32020218       0.98721753       0.49999703 </v>
    <v>       0.33839899       0.97996610       0.73787579 </v>
    <v>       0.30325613       0.29846073       0.00643868 </v>
    <v>       0.34911399       0.29603436       0.24761269 </v>
    <v>       0.32929169       0.36718227       0.52099050 </v>
    <v>       0.30754628       0.32322773       0.77602962 </v>
    <v>       0.32542175       0.65680759       0.01116029 </v>
    <v>       0.36006728       0.65364163       0.25688511 </v>
    <v>       0.32851948       0.63231051       0.49133788 </v>
    <v>       0.31796268       0.66391862       0.77218836 </v>
    <v>       0.51799016       0.15068036       0.09434554 </v>
    <v>       0.68078359       0.97512225       0.95759976 </v>
    <v>       0.52045312       0.20628623       0.39809306 </v>
    <v>       0.68649259       0.99475552       0.25013991 </v>
    <v>       0.46098127       0.22994683       0.61560497 </v>
    <v>       0.61957057       0.00507163       0.48978951 </v>
    <v>       0.50812845       0.16061030       0.84439373 </v>
    <v>       0.64239963       0.98941452       0.69765598 </v>
    <v>       0.67699473       0.33945892       0.02348573 </v>
    <v>       0.66437542       0.34612206       0.24233058 </v>
    <v>       0.65854382       0.34896370       0.51465983 </v>
    <v>       0.67492530       0.33191087       0.75291530 </v>
    <v>       0.51490133       0.51189160       0.12270192 </v>
    <v>       0.60547407       0.70866316       0.98401401 </v>
    <v>       0.53908300       0.49952540       0.39753096 </v>
    <v>       0.67777683       0.65883154       0.23431954 </v>
    <v>       0.46058775       0.48635239       0.66530632 </v>
    <v>       0.67031875       0.67412442       0.48333277 </v>
    <v>       0.50848044       0.47362926       0.89525709 </v>
    <v>       0.62764464       0.66826315       0.74307484 </v>
    <v>       0.49319350       0.83208586       0.13168069 </v>
    <v>       0.49823806       0.82733496       0.39356290 </v>
    <v>       0.46390004       0.81693734       0.61502507 </v>
    <v>       0.47708293       0.82703636       0.82795342 </v>
    <v>       0.84642065       0.14999912       0.12563256 </v>
    <v>       0.83311514       0.18458631       0.36785461 </v>
    <v>       0.80516241       0.19573932       0.60563326 </v>
    <v>       0.80296840       0.16276279       0.85774916 </v>
    <v>       0.85569999       0.48461023       0.11759482 </v>
    <v>       0.83757140       0.50027883       0.34701539 </v>
    <v>       0.81132030       0.52657146       0.63963437 </v>
    <v>       0.81686813       0.50047361       0.90819726 </v>
    <v>       0.87977982       0.83842864       0.15238421 </v>
    <v>       0.88496379       0.83148965       0.40163103 </v>
    <v>       0.82196114       0.81782128       0.62073358 </v>
    <v>       0.86596116       0.85865337       0.86083404 </v>
   </varray>
  </structure>
  <varray name="forces" >
   <v>       1.94680990       1.55450502      -1.74922870 </v>
   <v>      -3.86046894      -4.16466030       0.85350367 </v>
   <v>       0.76763443      -0.80230332      -1.69382361 </v>
   <v>      -1.40977355      -0.93895403      -0.73308061 </v>
   <v>       0.49608538      -0.56867236       0.70274764 </v>
   <v>      -0.32138068       1.08547115       0.68063211 </v>
   <v>       0.44640670      -1.97452281       1.89110118 </v>
   <v>      -1.38680997      -0.24794648      -0.78352489 </v>
   <v>       0.59653835       0.36577092       0.96181900 </v>
   <v>      -1.21593468      -0.59708694       0.88955008 </v>
   <v>       1.13899110       0.78045516       0.12022423 </v>
   <v>      -0.76546859       0.21517133      -0.46583120 </v>
   <v>       0.71667052      -0.67909778       0.98967158 </v>
   <v>      -0.89545821      -1.68629144      -0.87138091 </v>
   <v>      -1.66267997      -2.14313851      -3.62411990 </v>
   <v>       4.47626246      -3.06957487       2.45965353 </v>
   <v>      -1.79571093       1.61647930       1.48857536 </v>
   <v>      -3.68139667       1.46025410       0.92954960 </v>
   <v>      -0.07982047      -1.78765321       1.61766274 </v>
   <v>       0.73420552      -0.82692706      -0.69016114 </v>
   <v>       0.07961044      -0.80326258      -0.20626809 </v>
   <v>       0.28373049       1.20880805       0.65708597 </v>
   <v>       2.33063729       1.13226423      -0.17983127 </v>
   <v>       1.03044099       0.30746705       0.17314541 </v>
   <v>       0.19228553      -0.00246754       0.83742245 </v>
   <v>      -1.42629204       0.24141870      -2.47391717 </v>
   <v>      -0.41335065       0.25749158       0.63103670 </v>
   <v>      -3.52725583       2.83910402      -1.29605998 </v>
   <v>       2.62081400       3.46124030      -2.50840131 </v>
   <v>       2.17864658       3.51960320       0.75549172 </v>
   <v>      -1.53460962      -1.09314106      -3.26865206 </v>
   <v>       0.05793642       0.29953723      -0.43313554 </v>
   <v>       0.06621653       1.20810061      -0.72192906 </v>
   <v>      -0.25157089       0.48190424      -0.42857571 </v>
   <v>       1.46574730       3.52952042       2.32578380 </v>
   <v>      -2.33581402      -2.00194837      -2.21508068 </v>
   <v>       0.13411811      -0.78462486       1.07292269 </v>
   <v>      -1.37776952       0.54627813       2.07914727 </v>
   <v>      -1.24350177      -0.40291151      -1.75219365 </v>
   <v>      -0.45934928       0.26810181       0.70581083 </v>
   <v>       2.53937647      -6.75431806       2.87925530 </v>
   <v>       3.07814366       0.28306988       1.13382233 </v>
   <v>      -0.23834488      -0.55420007       1.54859009 </v>
   <v>       0.48868710       1.41882727       2.23578266 </v>
   <v>       0.12997814      -1.93208142      -2.34966071 </v>
   <v>       0.71354206      -1.25978188      -0.15359910 </v>
   <v>       2.11886515       1.89050239      -0.16294695 </v>
   <v>      -1.64118499       2.04752515      -0.20604935 </v>
   <v>      -1.51792360      -0.81267355      -0.00340158 </v>
   <v>       2.42114231      -1.60201727       0.34053353 </v>
   <v>      -2.62358198       0.42037890      -3.83549929 </v>
   <v>       0.36236330       1.27944726       1.19520818 </v>
   <v>       2.05497547       1.72155491      -0.87965141 </v>
   <v>       1.05437703       0.62195833       2.37782910 </v>
   <v>      -1.32737217       0.61357705      -0.97052744 </v>
   <v>       2.68843555      -0.67980714       0.60761162 </v>
   <v>      -0.16103355       1.42138837       0.65434425 </v>
   <v>       0.00953062      -2.41045293      -2.33784210 </v>
   <v>       0.86318837      -1.36844706      -1.12902667 </v>
   <v>       2.55722725       2.28450106       4.89392510 </v>
   <v>      -1.04491359       1.24115451       0.77627224 </v>
   <v>      -0.51832933       0.10498304      -0.10909244 </v>
   <v>       0.95212402      -2.07181153       1.22798010 </v>
   <v>       1.97590313      -0.38274747       0.89388111 </v>
   <v>      -0.23809260       1.14090488       0.34643806 </v>
   <v>      -0.01395643      -0.78837276       2.32469149 </v>
   <v>       0.57238921      -1.74692535      -1.01793930 </v>
   <v>       0.46657163       1.01562280      -2.19989913 </v>
   <v>      -3.79833063       3.37456048      -2.53867898 </v>
   <v>      -1.90503345      -0.27064389      -0.92814020 </v>
   <v>      -0.33433117       0.31819164      -0.77190225 </v>
   <v>      -1.79976382      -0.36762907      -0.56965030 </v>
  </varray>
  <varray name="stress" >
   <v>       9.34733920      -1.98865733       7.23336674 </v>
   <v>      -1.98865862      42.37522047      -6.01400955 </v>
   <v>       7.23336897      -6.01402208      20.64708630 </v>
  </varray>
  <energy>
   <i name="e_fr_energy">   -816.61018586 </i>
   <i name="e_wo_entrp">   -816.61551535 </i>
   <i name="e_0_energy">   -816.61196236 </i>
  </energy>
  <time name="totalsc"> 8702.95 1342.42</time>
  <eigenvalues>
   <array>
    <dimension dim="1">band</dimension>
    <dimension dim="2">kpoint</dimension>
    <dimension dim="3">spin</dimension>
    <field>eigene</field>
    <field>occ</field>
    <set>
     <set comment="spin 1">
      <set comment="kpoint 1">
       <r>  -30.0803    1.0000 </r>
       <r>  -29.9415    1.0000 </r>
       <r>  -29.6445    1.0000 </r>
       <r>  -29.6001    1.0000 </r>
       <r>  -29.5381    1.0000 </r>
       <r>  -29.5284    1.0000 </r>
       <r>  -29.5141    1.0000 </r>
       <r>  -29.4963    1.0000 </r>
       <r>  -29.4855    1.0000 </r>
       <r>  -29.4565    1.0000 </r>
       <r>  -29.4160    1.0000 </r>
       <r>  -29.4031    1.0000 </r>
       <r>  -29.3887    1.0000 </r>
       <r>  -29.3848    1.0000 </r>
       <r>  -29.3660    1.0000 </r>
       <r>  -29.3568    1.0000 </r>
       <r>  -29.3546    1.0000 </r>
       <r>  -29.3421    1.0000 </r>
       <r>  -29.3378    1.0000 </r>
       <r>  -29.3275    1.0000 </r>
       <r>  -29.3063    1.0000 </r>
       <r>  -29.3000    1.0000 </r>
       <r>  -29.2922    1.0000 </r>
       <r>  -29.2778    1.0000 </r>
       <r>  -29.2638    1.0000 </r>
       <r>  -29.2560    1.0000 </r>
       <r>  -29.2487    1.0000 </r>
       <r>  -29.2378    1.0000 </r>
       <r>  -29.2342    1.0000 </r>
       <r>  -29.2248    1.0000 </r>
       <r>  -29.2208    1.0000 </r>
       <r>  -29.2136    1.0000 </r>
       <r>  -29.2052    1.0000 </r>
       <r>  -29.2033    1.0000 </r>
       <r>  -29.1972    1.0000 </r>
       <r>  -29.1888    1.0000 </r>
       <r>  -29.1808    1.0000 </r>
       <r>  -29.1768    1.0000 </r>
       <r>  -29.1696    1.0000 </r>
       <r>  -29.1675    1.0000 </r>
       <r>  -29.1587    1.0000 </r>
       <r>  -29.1526    1.0000 </r>
       <r>  -29.1480    1.0000 </r>
       <r>  -29.1442    1.0000 </r>
       <r>  -29.1413    1.0000 </r>
       <r>  -29.1285    1.0000 </r>
       <r>  -29.1242    1.0000 </r>
       <r>  -29.1123    1.0000 </r>
       <r>  -29.1105    1.0000 </r>
       <r>  -29.1012    1.0000 </r>
       <r>  -29.0908    1.0000 </r>
       <r>  -29.0862    1.0000 </r>
       <r>  -29.0828    1.0000 </r>
       <r>  -29.0791    1.0000 </r>
       <r>  -29.0672    1.0000 </r>
       <r>  -29.0645    1.0000 </r>
       <r>  -29.0619    1.0000 </r>
       <r>  -29.0521    1.0000 </r>
       <r>  -29.0448    1.0000 </r>
       <r>  -29.0422    1.0000 </r>
       <r>  -29.0406    1.0000 </r>
       <r>  -29.0240    1.0000 </r>
       <r>  -29.0168    1.0000 </r>
       <r>  -29.0150    1.0000 </r>
       <r>  -29.0097    1.0000 </r>
       <r>  -29.0030    1.0000 </r>
       <r>  -29.0007    1.0000 </r>
       <r>  -28.9967    1.0000 </r>
       <r>  -28.9905    1.0000 </r>
       <r>  -28.9851    1.0000 </r>
       <r>  -28.9798    1.0000 </r>
       <r>  -28.9709    1.0000 </r>
       <r>  -28.9693    1.0000 </r>
       <r>  -28.9586    1.0000 </r>
       <r>  -28.9566    1.0000 </r>
       <r>  -28.9492    1.0000 </r>
       <r>  -28.9409    1.0000 </r>
       <r>  -28.9329    1.0000 </r>
       <r>  -28.9315    1.0000 </r>
       <r>  -28.9213    1.0000 </r>
       <r>  -28.9124    1.0000 </r>
       <r>  -28.8977    1.0000 </r>
       <r>  -28.8907    1.0000 </r>
       <r>  -28.8881    1.0000 </r>
       <r>  -28.8776    1.0000 </r>
       <r>  -28.8693    1.0000 </r>
       <r>  -28.8678    1.0000 </r>
       <r>  -28.8625    1.0000 </r>
       <r>  -28.8513    1.0000 </r>
       <r>  -28.8410    1.0000 </r>
       <r>  -28.8338    1.0000 </r>
       <r>  -28.8330    1.0000 </r>
       <r>  -28.8215    1.0000 </r>
       <r>  -28.8176    1.0000 </r>
       <r>  -28.8101    1.0000 </r>
       <r>  -28.8032    1.0000 </r>
       <r>  -28.7984    1.0000 </r>
       <r>  -28.7899    1.0000 </r>
       <r>  -28.7782    1.0000 </r>
       <r>  -28.7753    1.0000 </r>
       <r>  -28.7661    1.0000 </r>
       <r>  -28.7632    1.0000 </r>
       <r>  -28.7538    1.0000 </r>
       <r>  -28.7447    1.0000 </r>
       <r>  -28.7355    1.0000 </r>
       <r>  -28.7354    1.0000 </r>
       <r>  -28.7319    1.0000 </r>
       <r>  -28.7310    1.0000 </r>
       <r>  -28.7234    1.0000 </r>
       <r>  -28.7124    1.0000 </r>
       <r>  -28.7097    1.0000 </r>
       <r>  -28.6995    1.0000 </r>
       <r>  -28.6980    1.0000 </r>
       <r>  -28.6877    1.0000 </r>
       <r>  -28.6855    1.0000 </r>
       <r>  -28.6800    1.0000 </r>
       <r>  -28.6691    1.0000 </r>
       <r>  -28.6630    1.0000 </r>
       <r>  -28.6581    1.0000 </r>
       <r>  -28.6553    1.0000 </r>
       <r>  -28.6443    1.0000 </r>
       <r>  -28.6403    1.0000 </r>
       <r>  -28.6378    1.0000 </r>
       <r>  -28.6328    1.0000 </r>
       <r>  -28.6239    1.0000 </r>
       <r>  -28.6208    1.0000 </r>
       <r>  -28.6153    1.0000 </r>
       <r>  -28.6124    1.0000 </r>
       <r>  -28.6083    1.0000 </r>
       <r>  -28.6026    1.0000 </r>
       <r>  -28.5955    1.0000 </r>
       <r>  -28.5872    1.0000 </r>
       <r>  -28.5814    1.0000 </r>
       <r>  -28.5790    1.0000 </r>
       <r>  -28.5752    1.0000 </r>
       <r>  -28.5700    1.0000 </r>
       <r>  -28.5648    1.0000 </r>
       <r>  -28.5491    1.0000 </r>
       <r>  -28.5352    1.0000 </r>
       <r>  -28.5345    1.0000 </r>
       <r>  -28.5311    1.0000 </r>
       <r>  -28.5185    1.0000 </r>
       <r>  -28.5106    1.0000 </r>
       <r>  -28.5079    1.0000 </r>
       <r>  -28.4994    1.0000 </r>
       <r>  -28.4922    1.0000 </r>
       <r>  -28.4843    1.0000 </r>
       <r>  -28.4751    1.0000 </r>
       <r>  -28.4722    1.0000 </r>
       <r>  -28.4644    1.0000 </r>
       <r>  -28.4596    1.0000 </r>
       <r>  -28.4498    1.0000 </r>
       <r>  -28.4458    1.0000 </r>
       <r>  -28.4303    1.0000 </r>
       <r>  -28.4289    1.0000 </r>
       <r>  -28.4173    1.0000 </r>
       <r>  -28.4097    1.0000 </r>
       <r>  -28.4048    1.0000 </r>
       <r>  -28.3960    1.0000 </r>
       <r>  -28.3903    1.0000 </r>
       <r>  -28.3758    1.0000 </r>
       <r>  -28.3697    1.0000 </r>
       <r>  -28.3603    1.0000 </r>
       <r>  -28.3517    1.0000 </r>
       <r>  -28.3469    1.0000 </r>
       <r>  -28.3428    1.0000 </r>
       <r>  -28.3326    1.0000 </r>
       <r>  -28.3287    1.0000 </r>
       <r>  -28.3206    1.0000 </r>
       <r>  -28.3196    1.0000 </r>
       <r>  -28.3125    1.0000 </r>
       <r>  -28.3041    1.0000 </r>
       <r>  -28.2976    1.0000 </r>
       <r>  -28.2933    1.0000 </r>
       <r>  -28.2716    1.0000 </r>
       <r>  -28.2673    1.0000 </r>
       <r>  -28.2634    1.0000 </r>
       <r>  -28.2578    1.0000 </r>
       <r>  -28.2434    1.0000 </r>
       <r>  -28.2372    1.0000 </r>
       <r>  -28.2313    1.0000 </r>
       <r>  -28.2220    1.0000 </r>
       <r>  -28.2204    1.0000 </r>
       <r>  -28.2160    1.0000 </r>
       <r>  -28.2042    1.0000 </r>
       <r>  -28.1957    1.0000 </r>
       <r>  -28.1822    1.0000 </r>
       <r>  -28.1645    1.0000 </r>
       <r>  -28.1591    1.0000 </r>
       <r>  -28.1408    1.0000 </r>
       <r>  -28.1367    1.0000 </r>
       <r>  -28.1211    1.0000 </r>
       <r>  -28.1150    1.0000 </r>
       <r>  -28.1004    1.0000 </r>
       <r>  -28.0974    1.0000 </r>
       <r>  -28.0883    1.0000 </r>
       <r>  -28.0758    1.0000 </r>
       <r>  -28.0688    1.0000 </r>
       <r>  -28.0534    1.0000 </r>
       <r>  -28.0084    1.0000 </r>
       <r>  -27.9934    1.0000 </r>
       <r>  -27.9885    1.0000 </r>
       <r>  -27.9753    1.0000 </r>
       <r>  -27.9610    1.0000 </r>
       <r>  -27.9259    1.0000 </r>
       <r>  -27.9193    1.0000 </r>
       <r>  -27.8801    1.0000 </r>
       <r>  -27.8597    1.0000 </r>
       <r>  -27.8276    1.0000 </r>
       <r>  -27.7677    1.0000 </r>
       <r>  -27.7552    1.0000 </r>
       <r>  -27.6214    1.0000 </r>
       <r>  -27.5886    1.0000 </r>
       <r>  -27.5616    1.0000 </r>
       <r>  -27.5230    1.0000 </r>
       <r>  -27.3997    1.0000 </r>
       <r>   -2.6250    1.0000 </r>
       <r>   -1.4068    1.0000 </r>
       <r>   -1.3743    1.0000 </r>
       <r>   -0.6298    1.0000 </r>
       <r>   -0.5766    1.0000 </r>
       <r>   -0.5188    1.0000 </r>
       <r>   -0.4896    1.0000 </r>
       <r>    0.0384    1.0000 </r>
       <r>    0.0751    1.0000 </r>
       <r>    0.1012    1.0000 </r>
       <r>    0.1063    1.0000 </r>
       <r>    0.1442    1.0000 </r>
       <r>    0.1526    1.0000 </r>
       <r>    0.2386    1.0000 </r>
       <r>    0.2665    1.0000 </r>
       <r>    0.4449    1.0000 </r>
       <r>    0.5192    1.0000 </r>
       <r>    0.5257    1.0000 </r>
       <r>    0.5900    1.0000 </r>
       <r>    0.8975    1.0000 </r>
       <r>    0.9434    1.0000 </r>
       <r>    1.0504    1.0000 </r>
       <r>    1.0772    1.0000 </r>
       <r>    1.0805    1.0000 </r>
       <r>    1.1618    1.0000 </r>
       <r>    1.2089    1.0000 </r>
       <r>    1.2323    1.0000 </r>
       <r>    1.2510    1.0000 </r>
       <r>    1.3262    1.0000 </r>
       <r>    1.3382    1.0000 </r>
       <r>    1.3947    1.0000 </r>
       <r>    1.4048    1.0000 </r>
       <r>    1.4401    1.0000 </r>
       <r>    1.4951    1.0000 </r>
       <r>    1.5183    1.0000 </r>
       <r>    1.5496    1.0000 </r>
       <r>    1.5911    1.0000 </r>
       <r>    1.6007    1.0000 </r>
       <r>    1.6036    1.0000 </r>
       <r>    1.6365    1.0000 </r>
       <r>    1.6454    1.0000 </r>
       <r>    1.7092    1.0000 </r>
       <r>    1.7388    1.0000 </r>
       <r>    1.8057    1.0000 </r>
       <r>    1.8622    1.0000 </r>
       <r>    1.8728    1.0000 </r>
       <r>    1.9512    1.0000 </r>
       <r>    1.9747    1.0000 </r>
       <r>    2.0304    1.0000 </r>
       <r>    2.0647    1.0000 </r>
       <r>    2.0813    1.0000 </r>
       <r>    2.1100    1.0000 </r>
       <r>    2.1675    1.0000 </r>
       <r>    2.1912    1.0000 </r>
       <r>    2.2076    1.0000 </r>
       <r>    2.2233    1.0000 </r>
       <r>    2.2610    1.0000 </r>
       <r>    2.3007    1.0000 </r>
       <r>    2.3094    1.0000 </r>
       <r>    2.3264    1.0000 </r>
       <r>    2.3657    1.0000 </r>
       <r>    2.3757    1.0000 </r>
       <r>    2.3884    1.0000 </r>
       <r>    2.4265    1.0000 </r>
       <r>    2.4613    1.0000 </r>
       <r>    2.4852    1.0000 </r>
       <r>    2.4939    1.0000 </r>
       <r>    2.5425    1.0000 </r>
       <r>    2.5664    1.0000 </r>
       <r>    2.5870    1.0000 </r>
       <r>    2.6150    1.0000 </r>
       <r>    2.6510    1.0000 </r>
       <r>    2.6735    1.0000 </r>
       <r>    2.6801    1.0000 </r>
       <r>    2.7382    1.0000 </r>
       <r>    2.7547    1.0000 </r>
       <r>    2.7988    1.0000 </r>
       <r>    2.8575    1.0000 </r>
       <r>    2.8892    1.0000 </r>
       <r>    2.9189    1.0000 </r>
       <r>    2.9484    1.0000 </r>
       <r>    3.0060    1.0000 </r>
       <r>    3.0584    1.0000 </r>
       <r>    3.0935    1.0000 </r>
       <r>    3.1290    1.0000 </r>
       <r>    3.1511    1.0000 </r>
       <r>    3.1725    1.0000 </r>
       <r>    3.1985    1.0000 </r>
       <r>    3.2273    1.0000 </r>
       <r>    3.2324    1.0000 </r>
       <r>    3.2623    1.0000 </r>
       <r>    3.3026    1.0000 </r>
       <r>    3.3046    1.0000 </r>
       <r>    3.3419    1.0000 </r>
       <r>    3.3634    1.0000 </r>
       <r>    3.3763    1.0000 </r>
       <r>    3.3921    1.0000 </r>
       <r>    3.4051    1.0000 </r>
       <r>    3.4426    1.0000 </r>
       <r>    3.4919    1.0000 </r>
       <r>    3.4938    1.0000 </r>
       <r>    3.5052    1.0000 </r>
       <r>    3.5173    1.0000 </r>
       <r>    3.5328    1.0000 </r>
       <r>    3.5578    1.0000 </r>
       <r>    3.5818    1.0000 </r>
       <r>    3.5893    1.0000 </r>
       <r>    3.6124    1.0000 </r>
       <r>    3.6343    1.0000 </r>
       <r>    3.6610    1.0000 </r>
       <r>    3.6648    1.0000 </r>
       <r>    3.7049    1.0000 </r>
       <r>    3.7313    1.0000 </r>
       <r>    3.7470    1.0000 </r>
       <r>    3.7891    1.0000 </r>
       <r>    3.8143    1.0000 </r>
       <r>    3.8245    1.0000 </r>
       <r>    3.8445    1.0000 </r>
       <r>    3.8560    1.0000 </r>
       <r>    3.8826    1.0000 </r>
       <r>    3.9058    1.0000 </r>
       <r>    3.9365    1.0000 </r>
       <r>    3.9419    1.0000 </r>
       <r>    3.9574    1.0000 </r>
       <r>    4.0065    1.0000 </r>
       <r>    4.0249    1.0000 </r>
       <r>    4.0350    1.0000 </r>
       <r>    4.0395    1.0000 </r>
       <r>    4.0649    1.0000 </r>
       <r>    4.0758    1.0000 </r>
       <r>    4.0936    1.0000 </r>
       <r>    4.1036    1.0000 </r>
       <r>    4.1151    1.0000 </r>
       <r>    4.1434    1.0000 </r>
       <r>    4.1863    1.0000 </r>
       <r>    4.2244    1.0000 </r>
       <r>    4.2429    1.0000 </r>
       <r>    4.2644    1.0000 </r>
       <r>    4.2681    1.0000 </r>
       <r>    4.2940    1.0000 </r>
       <r>    4.3069    1.0000 </r>
       <r>    4.3264    1.0000 </r>
       <r>    4.3751    1.0000 </r>
       <r>    4.3838    1.0000 </r>
       <r>    4.3975    1.0000 </r>
       <r>    4.4272    1.0000 </r>
       <r>    4.4316    1.0000 </r>
       <r>    4.4477    1.0000 </r>
       <r>    4.4652    1.0000 </r>
       <r>    4.4766    1.0000 </r>
       <r>    4.4973    1.0000 </r>
       <r>    4.5190    1.0000 </r>
       <r>    4.5574    1.0000 </r>
       <r>    4.5755    1.0000 </r>
       <r>    4.6161    1.0000 </r>
       <r>    4.6315    1.0000 </r>
       <r>    4.6495    1.0000 </r>
       <r>    4.6844    1.0000 </r>
       <r>    4.7175    1.0000 </r>
       <r>    4.7236    1.0000 </r>
       <r>    4.7646    1.0000 </r>
       <r>    4.7918    1.0000 </r>
       <r>    4.8145    1.0000 </r>
       <r>    4.8351    1.0000 </r>
       <r>    4.8375    1.0000 </r>
       <r>    4.8796    1.0000 </r>
       <r>    4.8871    1.0000 </r>
       <r>    4.9217    1.0000 </r>
       <r>    4.9440    1.0001 </r>
       <r>    4.9594    1.0003 </r>
       <r>    4.9854    1.0011 </r>
       <r>    5.0218    1.0049 </r>
       <r>    5.0492    1.0118 </r>
       <r>    5.0800    1.0248 </r>
       <r>    5.1062    1.0346 </r>
       <r>    5.1140    1.0355 </r>
       <r>    5.1296    1.0308 </r>
       <r>    5.1308    1.0300 </r>
       <r>    5.1591    0.9827 </r>
       <r>    5.2054    0.7486 </r>
       <r>    5.2261    0.5864 </r>
       <r>    5.2420    0.4519 </r>
       <r>    5.2954    0.0845 </r>
       <r>    5.2988    0.0693 </r>
       <r>    5.3663   -0.0347 </r>
       <r>    5.3856   -0.0280 </r>
       <r>    5.4123   -0.0160 </r>
       <r>    5.4259   -0.0111 </r>
       <r>    5.4867   -0.0011 </r>
       <r>    5.4886   -0.0010 </r>
       <r>    5.5084   -0.0004 </r>
       <r>    5.5576   -0.0000 </r>
       <r>    5.5885   -0.0000 </r>
       <r>    5.6286   -0.0000 </r>
       <r>    5.6451   -0.0000 </r>
       <r>    5.6518   -0.0000 </r>
       <r>    5.6912   -0.0000 </r>
       <r>    5.7042   -0.0000 </r>
       <r>    5.7463   -0.0000 </r>
       <r>    5.7788   -0.0000 </r>
       <r>    5.7909   -0.0000 </r>
       <r>    5.8198   -0.0000 </r>
       <r>    5.8510   -0.0000 </r>
       <r>    5.8667   -0.0000 </r>
       <r>    5.9001   -0.0000 </r>
       <r>    5.9286   -0.0000 </r>
       <r>    5.9892   -0.0000 </r>
       <r>    6.0061   -0.0000 </r>
       <r>    6.0682   -0.0000 </r>
       <r>    6.0841   -0.0000 </r>
       <r>    6.0994   -0.0000 </r>
       <r>    6.1618   -0.0000 </r>
       <r>    6.1797   -0.0000 </r>
       <r>    6.2211   -0.0000 </r>
       <r>    6.2770   -0.0000 </r>
       <r>    6.3405   -0.0000 </r>
       <r>    6.3442   -0.0000 </r>
       <r>    6.3696   -0.0000 </r>
       <r>    6.3975   -0.0000 </r>
       <r>    6.4335   -0.0000 </r>
       <r>    6.4640   -0.0000 </r>
       <r>    6.4894   -0.0000 </r>
       <r>    6.5148   -0.0000 </r>
       <r>    6.5735   -0.0000 </r>
       <r>    6.5977   -0.0000 </r>
       <r>    6.6013   -0.0000 </r>
       <r>    6.6205   -0.0000 </r>
       <r>    6.6443   -0.0000 </r>
       <r>    6.7181   -0.0000 </r>
       <r>    6.7962   -0.0000 </r>
       <r>    6.8185   -0.0000 </r>
       <r>    6.8213   -0.0000 </r>
       <r>    6.8793   -0.0000 </r>
       <r>    6.9021   -0.0000 </r>
       <r>    6.9392   -0.0000 </r>
       <r>    6.9645   -0.0000 </r>
       <r>    7.0367   -0.0000 </r>
       <r>    7.0495   -0.0000 </r>
       <r>    7.0573   -0.0000 </r>
       <r>    7.0863   -0.0000 </r>
       <r>    7.1469   -0.0000 </r>
       <r>    7.1945   -0.0000 </r>
       <r>    7.2213   -0.0000 </r>
       <r>    7.2469   -0.0000 </r>
       <r>    7.2865   -0.0000 </r>
       <r>    7.3464   -0.0000 </r>
       <r>    7.3578   -0.0000 </r>
       <r>    7.4055   -0.0000 </r>
       <r>    7.4226   -0.0000 </r>
       <r>    7.4931   -0.0000 </r>
       <r>    7.5223   -0.0000 </r>
       <r>    7.5489   -0.0000 </r>
       <r>    7.5543   -0.0000 </r>
       <r>    7.6045   -0.0000 </r>
       <r>    7.6404   -0.0000 </r>
       <r>    7.6650   -0.0000 </r>
       <r>    7.7521   -0.0000 </r>
       <r>    7.7819   -0.0000 </r>
       <r>    7.7984   -0.0000 </r>
       <r>    7.8315   -0.0000 </r>
      </set>
      <set comment="kpoint 2">
       <r>  -30.0803    1.0000 </r>
       <r>  -29.9418    1.0000 </r>
       <r>  -29.6450    1.0000 </r>
       <r>  -29.6008    1.0000 </r>
       <r>  -29.5370    1.0000 </r>
       <r>  -29.5308    1.0000 </r>
       <r>  -29.5102    1.0000 </r>
       <r>  -29.4966    1.0000 </r>
       <r>  -29.4849    1.0000 </r>
       <r>  -29.4575    1.0000 </r>
       <r>  -29.4151    1.0000 </r>
       <r>  -29.4015    1.0000 </r>
       <r>  -29.3894    1.0000 </r>
       <r>  -29.3825    1.0000 </r>
       <r>  -29.3700    1.0000 </r>
       <r>  -29.3564    1.0000 </r>
       <r>  -29.3538    1.0000 </r>
       <r>  -29.3456    1.0000 </r>
       <r>  -29.3368    1.0000 </r>
       <r>  -29.3305    1.0000 </r>
       <r>  -29.3084    1.0000 </r>
       <r>  -29.3015    1.0000 </r>
       <r>  -29.2892    1.0000 </r>
       <r>  -29.2804    1.0000 </r>
       <r>  -29.2668    1.0000 </r>
       <r>  -29.2566    1.0000 </r>
       <r>  -29.2447    1.0000 </r>
       <r>  -29.2404    1.0000 </r>
       <r>  -29.2340    1.0000 </r>
       <r>  -29.2300    1.0000 </r>
       <r>  -29.2260    1.0000 </r>
       <r>  -29.2187    1.0000 </r>
       <r>  -29.2092    1.0000 </r>
       <r>  -29.2003    1.0000 </r>
       <r>  -29.1953    1.0000 </r>
       <r>  -29.1894    1.0000 </r>
       <r>  -29.1843    1.0000 </r>
       <r>  -29.1815    1.0000 </r>
       <r>  -29.1694    1.0000 </r>
       <r>  -29.1663    1.0000 </r>
       <r>  -29.1638    1.0000 </r>
       <r>  -29.1555    1.0000 </r>
       <r>  -29.1484    1.0000 </r>
       <r>  -29.1441    1.0000 </r>
       <r>  -29.1391    1.0000 </r>
       <r>  -29.1293    1.0000 </r>
       <r>  -29.1196    1.0000 </r>
       <r>  -29.1076    1.0000 </r>
       <r>  -29.1055    1.0000 </r>
       <r>  -29.1000    1.0000 </r>
       <r>  -29.0948    1.0000 </r>
       <r>  -29.0917    1.0000 </r>
       <r>  -29.0786    1.0000 </r>
       <r>  -29.0754    1.0000 </r>
       <r>  -29.0684    1.0000 </r>
       <r>  -29.0637    1.0000 </r>
       <r>  -29.0540    1.0000 </r>
       <r>  -29.0478    1.0000 </r>
       <r>  -29.0458    1.0000 </r>
       <r>  -29.0358    1.0000 </r>
       <r>  -29.0320    1.0000 </r>
       <r>  -29.0252    1.0000 </r>
       <r>  -29.0234    1.0000 </r>
       <r>  -29.0168    1.0000 </r>
       <r>  -29.0091    1.0000 </r>
       <r>  -29.0035    1.0000 </r>
       <r>  -28.9995    1.0000 </r>
       <r>  -28.9947    1.0000 </r>
       <r>  -28.9866    1.0000 </r>
       <r>  -28.9772    1.0000 </r>
       <r>  -28.9721    1.0000 </r>
       <r>  -28.9671    1.0000 </r>
       <r>  -28.9613    1.0000 </r>
       <r>  -28.9559    1.0000 </r>
       <r>  -28.9492    1.0000 </r>
       <r>  -28.9471    1.0000 </r>
       <r>  -28.9334    1.0000 </r>
       <r>  -28.9312    1.0000 </r>
       <r>  -28.9209    1.0000 </r>
       <r>  -28.9156    1.0000 </r>
       <r>  -28.9120    1.0000 </r>
       <r>  -28.9027    1.0000 </r>
       <r>  -28.8964    1.0000 </r>
       <r>  -28.8867    1.0000 </r>
       <r>  -28.8779    1.0000 </r>
       <r>  -28.8733    1.0000 </r>
       <r>  -28.8690    1.0000 </r>
       <r>  -28.8614    1.0000 </r>
       <r>  -28.8540    1.0000 </r>
       <r>  -28.8427    1.0000 </r>
       <r>  -28.8355    1.0000 </r>
       <r>  -28.8319    1.0000 </r>
       <r>  -28.8250    1.0000 </r>
       <r>  -28.8190    1.0000 </r>
       <r>  -28.8088    1.0000 </r>
       <r>  -28.8050    1.0000 </r>
       <r>  -28.7940    1.0000 </r>
       <r>  -28.7872    1.0000 </r>
       <r>  -28.7808    1.0000 </r>
       <r>  -28.7756    1.0000 </r>
       <r>  -28.7708    1.0000 </r>
       <r>  -28.7640    1.0000 </r>
       <r>  -28.7612    1.0000 </r>
       <r>  -28.7530    1.0000 </r>
       <r>  -28.7424    1.0000 </r>
       <r>  -28.7368    1.0000 </r>
       <r>  -28.7349    1.0000 </r>
       <r>  -28.7298    1.0000 </r>
       <r>  -28.7218    1.0000 </r>
       <r>  -28.7164    1.0000 </r>
       <r>  -28.7105    1.0000 </r>
       <r>  -28.7053    1.0000 </r>
       <r>  -28.7003    1.0000 </r>
       <r>  -28.6913    1.0000 </r>
       <r>  -28.6896    1.0000 </r>
       <r>  -28.6871    1.0000 </r>
       <r>  -28.6695    1.0000 </r>
       <r>  -28.6652    1.0000 </r>
       <r>  -28.6619    1.0000 </r>
       <r>  -28.6538    1.0000 </r>
       <r>  -28.6474    1.0000 </r>
       <r>  -28.6410    1.0000 </r>
       <r>  -28.6389    1.0000 </r>
       <r>  -28.6347    1.0000 </r>
       <r>  -28.6273    1.0000 </r>
       <r>  -28.6229    1.0000 </r>
       <r>  -28.6185    1.0000 </r>
       <r>  -28.6124    1.0000 </r>
       <r>  -28.6062    1.0000 </r>
       <r>  -28.6020    1.0000 </r>
       <r>  -28.5951    1.0000 </r>
       <r>  -28.5876    1.0000 </r>
       <r>  -28.5840    1.0000 </r>
       <r>  -28.5832    1.0000 </r>
       <r>  -28.5723    1.0000 </r>
       <r>  -28.5644    1.0000 </r>
       <r>  -28.5587    1.0000 </r>
       <r>  -28.5436    1.0000 </r>
       <r>  -28.5388    1.0000 </r>
       <r>  -28.5363    1.0000 </r>
       <r>  -28.5285    1.0000 </r>
       <r>  -28.5178    1.0000 </r>
       <r>  -28.5110    1.0000 </r>
       <r>  -28.5068    1.0000 </r>
       <r>  -28.4989    1.0000 </r>
       <r>  -28.4903    1.0000 </r>
       <r>  -28.4842    1.0000 </r>
       <r>  -28.4781    1.0000 </r>
       <r>  -28.4702    1.0000 </r>
       <r>  -28.4653    1.0000 </r>
       <r>  -28.4560    1.0000 </r>
       <r>  -28.4526    1.0000 </r>
       <r>  -28.4410    1.0000 </r>
       <r>  -28.4326    1.0000 </r>
       <r>  -28.4249    1.0000 </r>
       <r>  -28.4133    1.0000 </r>
       <r>  -28.4086    1.0000 </r>
       <r>  -28.4061    1.0000 </r>
       <r>  -28.3978    1.0000 </r>
       <r>  -28.3828    1.0000 </r>
       <r>  -28.3750    1.0000 </r>
       <r>  -28.3672    1.0000 </r>
       <r>  -28.3625    1.0000 </r>
       <r>  -28.3537    1.0000 </r>
       <r>  -28.3470    1.0000 </r>
       <r>  -28.3402    1.0000 </r>
       <r>  -28.3336    1.0000 </r>
       <r>  -28.3313    1.0000 </r>
       <r>  -28.3238    1.0000 </r>
       <r>  -28.3180    1.0000 </r>
       <r>  -28.3092    1.0000 </r>
       <r>  -28.3050    1.0000 </r>
       <r>  -28.2974    1.0000 </r>
       <r>  -28.2923    1.0000 </r>
       <r>  -28.2737    1.0000 </r>
       <r>  -28.2683    1.0000 </r>
       <r>  -28.2614    1.0000 </r>
       <r>  -28.2531    1.0000 </r>
       <r>  -28.2431    1.0000 </r>
       <r>  -28.2388    1.0000 </r>
       <r>  -28.2295    1.0000 </r>
       <r>  -28.2228    1.0000 </r>
       <r>  -28.2221    1.0000 </r>
       <r>  -28.2116    1.0000 </r>
       <r>  -28.2042    1.0000 </r>
       <r>  -28.1970    1.0000 </r>
       <r>  -28.1847    1.0000 </r>
       <r>  -28.1631    1.0000 </r>
       <r>  -28.1579    1.0000 </r>
       <r>  -28.1417    1.0000 </r>
       <r>  -28.1368    1.0000 </r>
       <r>  -28.1209    1.0000 </r>
       <r>  -28.1132    1.0000 </r>
       <r>  -28.1033    1.0000 </r>
       <r>  -28.0969    1.0000 </r>
       <r>  -28.0890    1.0000 </r>
       <r>  -28.0787    1.0000 </r>
       <r>  -28.0705    1.0000 </r>
       <r>  -28.0517    1.0000 </r>
       <r>  -28.0087    1.0000 </r>
       <r>  -27.9938    1.0000 </r>
       <r>  -27.9885    1.0000 </r>
       <r>  -27.9744    1.0000 </r>
       <r>  -27.9600    1.0000 </r>
       <r>  -27.9263    1.0000 </r>
       <r>  -27.9192    1.0000 </r>
       <r>  -27.8807    1.0000 </r>
       <r>  -27.8595    1.0000 </r>
       <r>  -27.8281    1.0000 </r>
       <r>  -27.7678    1.0000 </r>
       <r>  -27.7552    1.0000 </r>
       <r>  -27.6214    1.0000 </r>
       <r>  -27.5886    1.0000 </r>
       <r>  -27.5617    1.0000 </r>
       <r>  -27.5230    1.0000 </r>
       <r>  -27.3998    1.0000 </r>
       <r>   -2.4819    1.0000 </r>
       <r>   -1.4084    1.0000 </r>
       <r>   -1.2927    1.0000 </r>
       <r>   -1.2454    1.0000 </r>
       <r>   -0.5236    1.0000 </r>
       <r>   -0.4729    1.0000 </r>
       <r>   -0.4329    1.0000 </r>
       <r>   -0.3625    1.0000 </r>
       <r>    0.0481    1.0000 </r>
       <r>    0.1364    1.0000 </r>
       <r>    0.2339    1.0000 </r>
       <r>    0.2408    1.0000 </r>
       <r>    0.2748    1.0000 </r>
       <r>    0.3311    1.0000 </r>
       <r>    0.4473    1.0000 </r>
       <r>    0.6825    1.0000 </r>
       <r>    0.7085    1.0000 </r>
       <r>    0.7675    1.0000 </r>
       <r>    0.8097    1.0000 </r>
       <r>    0.9221    1.0000 </r>
       <r>    0.9728    1.0000 </r>
       <r>    1.0014    1.0000 </r>
       <r>    1.0422    1.0000 </r>
       <r>    1.0492    1.0000 </r>
       <r>    1.0990    1.0000 </r>
       <r>    1.1346    1.0000 </r>
       <r>    1.1661    1.0000 </r>
       <r>    1.2120    1.0000 </r>
       <r>    1.2484    1.0000 </r>
       <r>    1.2972    1.0000 </r>
       <r>    1.3100    1.0000 </r>
       <r>    1.3441    1.0000 </r>
       <r>    1.3755    1.0000 </r>
       <r>    1.3963    1.0000 </r>
       <r>    1.4400    1.0000 </r>
       <r>    1.5106    1.0000 </r>
       <r>    1.5479    1.0000 </r>
       <r>    1.6166    1.0000 </r>
       <r>    1.6638    1.0000 </r>
       <r>    1.7328    1.0000 </r>
       <r>    1.7530    1.0000 </r>
       <r>    1.7656    1.0000 </r>
       <r>    1.8285    1.0000 </r>
       <r>    1.8473    1.0000 </r>
       <r>    1.8961    1.0000 </r>
       <r>    1.9307    1.0000 </r>
       <r>    1.9657    1.0000 </r>
       <r>    1.9816    1.0000 </r>
       <r>    1.9911    1.0000 </r>
       <r>    2.0303    1.0000 </r>
       <r>    2.0399    1.0000 </r>
       <r>    2.0539    1.0000 </r>
       <r>    2.0795    1.0000 </r>
       <r>    2.1066    1.0000 </r>
       <r>    2.1287    1.0000 </r>
       <r>    2.1827    1.0000 </r>
       <r>    2.2005    1.0000 </r>
       <r>    2.2145    1.0000 </r>
       <r>    2.2626    1.0000 </r>
       <r>    2.2744    1.0000 </r>
       <r>    2.2992    1.0000 </r>
       <r>    2.3206    1.0000 </r>
       <r>    2.3511    1.0000 </r>
       <r>    2.3809    1.0000 </r>
       <r>    2.4152    1.0000 </r>
       <r>    2.4717    1.0000 </r>
       <r>    2.4921    1.0000 </r>
       <r>    2.5229    1.0000 </r>
       <r>    2.5697    1.0000 </r>
       <r>    2.5966    1.0000 </r>
       <r>    2.6429    1.0000 </r>
       <r>    2.6772    1.0000 </r>
       <r>    2.6979    1.0000 </r>
       <r>    2.7434    1.0000 </r>
       <r>    2.7538    1.0000 </r>
       <r>    2.7810    1.0000 </r>
       <r>    2.7876    1.0000 </r>
       <r>    2.8571    1.0000 </r>
       <r>    2.8967    1.0000 </r>
       <r>    2.9392    1.0000 </r>
       <r>    2.9718    1.0000 </r>
       <r>    2.9916    1.0000 </r>
       <r>    3.0181    1.0000 </r>
       <r>    3.0497    1.0000 </r>
       <r>    3.0773    1.0000 </r>
       <r>    3.1138    1.0000 </r>
       <r>    3.1294    1.0000 </r>
       <r>    3.1869    1.0000 </r>
       <r>    3.2043    1.0000 </r>
       <r>    3.2135    1.0000 </r>
[...]
       <r>   -31.9809     0.0000     0.0000 </r>
       <r>   -31.8416     0.0000     0.0000 </r>
       <r>   -31.7022     0.0000     0.0000 </r>
       <r>   -31.5629     0.0000     0.0000 </r>
       <r>   -31.4235     0.0000     0.0000 </r>
       <r>   -31.2842     0.0000     0.0000 </r>
       <r>   -31.1448     0.0000     0.0000 </r>
       <r>   -31.0054    -0.0000    -0.0000 </r>
       <r>   -30.8661    -0.0000    -0.0000 </r>
       <r>   -30.7267    -0.0000    -0.0000 </r>
       <r>   -30.5874    -0.0000    -0.0000 </r>
       <r>   -30.4480    -0.0000    -0.0000 </r>
       <r>   -30.3087    -0.0416    -0.0058 </r>
       <r>   -30.1693    -0.1361    -0.0248 </r>
       <r>   -30.0299    12.5881     1.7295 </r>
       <r>   -29.8906    14.6589     3.7723 </r>
       <r>   -29.7512     0.7645     3.8789 </r>
       <r>   -29.6119    16.3254     6.1539 </r>
       <r>   -29.4725    74.6855    16.5619 </r>
       <r>   -29.3332   138.0917    35.8060 </r>
       <r>   -29.1938   242.9879    69.6682 </r>
       <r>   -29.0544   322.9999   114.6806 </r>
       <r>   -28.9151   311.8755   158.1428 </r>
       <r>   -28.7757   301.5038   200.1596 </r>
       <r>   -28.6364   332.2396   246.4597 </r>
       <r>   -28.4970   309.3240   289.5663 </r>
       <r>   -28.3577   268.9737   327.0498 </r>
       <r>   -28.2183   266.8873   364.2425 </r>
       <r>   -28.0789   196.0267   391.5603 </r>
       <r>   -27.9396   120.0289   408.2872 </r>
       <r>   -27.8002    72.0347   418.3258 </r>
       <r>   -27.6609    29.9740   422.5029 </r>
       <r>   -27.5215    43.2995   428.5370 </r>
       <r>   -27.3821    20.5527   431.4012 </r>
       <r>   -27.2428     4.6527   432.0496 </r>
       <r>   -27.1034    -0.3541   432.0002 </r>
       <r>   -26.9641    -0.0016   432.0000 </r>
       <r>   -26.8247    -0.0000   432.0000 </r>
       <r>   -26.6854    -0.0000   432.0000 </r>
       <r>   -26.5460     0.0000   432.0000 </r>
       <r>   -26.4066     0.0000   432.0000 </r>
       <r>   -26.2673     0.0000   432.0000 </r>
       <r>   -26.1279     0.0000   432.0000 </r>
       <r>   -25.9886     0.0000   432.0000 </r>
       <r>   -25.8492     0.0000   432.0000 </r>
       <r>   -25.7099     0.0000   432.0000 </r>
       <r>   -25.5705     0.0000   432.0000 </r>
       <r>   -25.4311     0.0000   432.0000 </r>
       <r>   -25.2918     0.0000   432.0000 </r>
       <r>   -25.1524     0.0000   432.0000 </r>
       <r>   -25.0131     0.0000   432.0000 </r>
       <r>   -24.8737     0.0000   432.0000 </r>
       <r>   -24.7344     0.0000   432.0000 </r>
       <r>   -24.5950     0.0000   432.0000 </r>
       <r>   -24.4556     0.0000   432.0000 </r>
       <r>   -24.3163     0.0000   432.0000 </r>
       <r>   -24.1769     0.0000   432.0000 </r>
       <r>   -24.0376     0.0000   432.0000 </r>
       <r>   -23.8982     0.0000   432.0000 </r>
       <r>   -23.7589     0.0000   432.0000 </r>
       <r>   -23.6195     0.0000   432.0000 </r>
       <r>   -23.4801     0.0000   432.0000 </r>
       <r>   -23.3408     0.0000   432.0000 </r>
       <r>   -23.2014     0.0000   432.0000 </r>
       <r>   -23.0621     0.0000   432.0000 </r>
       <r>   -22.9227     0.0000   432.0000 </r>
       <r>   -22.7834     0.0000   432.0000 </r>
       <r>   -22.6440     0.0000   432.0000 </r>
       <r>   -22.5046     0.0000   432.0000 </r>
       <r>   -22.3653     0.0000   432.0000 </r>
       <r>   -22.2259     0.0000   432.0000 </r>
       <r>   -22.0866     0.0000   432.0000 </r>
       <r>   -21.9472     0.0000   432.0000 </r>
       <r>   -21.8079     0.0000   432.0000 </r>
       <r>   -21.6685     0.0000   432.0000 </r>
       <r>   -21.5291     0.0000   432.0000 </r>
       <r>   -21.3898     0.0000   432.0000 </r>
       <r>   -21.2504     0.0000   432.0000 </r>
       <r>   -21.1111     0.0000   432.0000 </r>
       <r>   -20.9717     0.0000   432.0000 </r>
       <r>   -20.8323     0.0000   432.0000 </r>
       <r>   -20.6930     0.0000   432.0000 </r>
       <r>   -20.5536     0.0000   432.0000 </r>
       <r>   -20.4143     0.0000   432.0000 </r>
       <r>   -20.2749     0.0000   432.0000 </r>
       <r>   -20.1356     0.0000   432.0000 </r>
       <r>   -19.9962     0.0000   432.0000 </r>
       <r>   -19.8568     0.0000   432.0000 </r>
       <r>   -19.7175     0.0000   432.0000 </r>
       <r>   -19.5781     0.0000   432.0000 </r>
       <r>   -19.4388     0.0000   432.0000 </r>
       <r>   -19.2994     0.0000   432.0000 </r>
       <r>   -19.1601     0.0000   432.0000 </r>
       <r>   -19.0207     0.0000   432.0000 </r>
       <r>   -18.8813     0.0000   432.0000 </r>
       <r>   -18.7420     0.0000   432.0000 </r>
       <r>   -18.6026     0.0000   432.0000 </r>
       <r>   -18.4633     0.0000   432.0000 </r>
       <r>   -18.3239     0.0000   432.0000 </r>
       <r>   -18.1846     0.0000   432.0000 </r>
       <r>   -18.0452     0.0000   432.0000 </r>
       <r>   -17.9058     0.0000   432.0000 </r>
       <r>   -17.7665     0.0000   432.0000 </r>
       <r>   -17.6271     0.0000   432.0000 </r>
       <r>   -17.4878     0.0000   432.0000 </r>
       <r>   -17.3484     0.0000   432.0000 </r>
       <r>   -17.2091     0.0000   432.0000 </r>
       <r>   -17.0697     0.0000   432.0000 </r>
       <r>   -16.9303     0.0000   432.0000 </r>
       <r>   -16.7910     0.0000   432.0000 </r>
       <r>   -16.6516     0.0000   432.0000 </r>
       <r>   -16.5123     0.0000   432.0000 </r>
       <r>   -16.3729     0.0000   432.0000 </r>
       <r>   -16.2336     0.0000   432.0000 </r>
       <r>   -16.0942     0.0000   432.0000 </r>
       <r>   -15.9548     0.0000   432.0000 </r>
       <r>   -15.8155     0.0000   432.0000 </r>
       <r>   -15.6761     0.0000   432.0000 </r>
       <r>   -15.5368     0.0000   432.0000 </r>
       <r>   -15.3974     0.0000   432.0000 </r>
       <r>   -15.2581     0.0000   432.0000 </r>
       <r>   -15.1187     0.0000   432.0000 </r>
       <r>   -14.9793     0.0000   432.0000 </r>
       <r>   -14.8400     0.0000   432.0000 </r>
       <r>   -14.7006     0.0000   432.0000 </r>
       <r>   -14.5613     0.0000   432.0000 </r>
       <r>   -14.4219     0.0000   432.0000 </r>
       <r>   -14.2825     0.0000   432.0000 </r>
       <r>   -14.1432     0.0000   432.0000 </r>
       <r>   -14.0038     0.0000   432.0000 </r>
       <r>   -13.8645     0.0000   432.0000 </r>
       <r>   -13.7251     0.0000   432.0000 </r>
       <r>   -13.5858     0.0000   432.0000 </r>
       <r>   -13.4464     0.0000   432.0000 </r>
       <r>   -13.3070     0.0000   432.0000 </r>
       <r>   -13.1677     0.0000   432.0000 </r>
       <r>   -13.0283     0.0000   432.0000 </r>
       <r>   -12.8890     0.0000   432.0000 </r>
       <r>   -12.7496     0.0000   432.0000 </r>
       <r>   -12.6103     0.0000   432.0000 </r>
       <r>   -12.4709     0.0000   432.0000 </r>
       <r>   -12.3315     0.0000   432.0000 </r>
       <r>   -12.1922     0.0000   432.0000 </r>
       <r>   -12.0528     0.0000   432.0000 </r>
       <r>   -11.9135     0.0000   432.0000 </r>
       <r>   -11.7741     0.0000   432.0000 </r>
       <r>   -11.6348     0.0000   432.0000 </r>
       <r>   -11.4954     0.0000   432.0000 </r>
       <r>   -11.3560     0.0000   432.0000 </r>
       <r>   -11.2167     0.0000   432.0000 </r>
       <r>   -11.0773     0.0000   432.0000 </r>
       <r>   -10.9380     0.0000   432.0000 </r>
       <r>   -10.7986     0.0000   432.0000 </r>
       <r>   -10.6593     0.0000   432.0000 </r>
       <r>   -10.5199     0.0000   432.0000 </r>
       <r>   -10.3805     0.0000   432.0000 </r>
       <r>   -10.2412     0.0000   432.0000 </r>
       <r>   -10.1018     0.0000   432.0000 </r>
       <r>    -9.9625     0.0000   432.0000 </r>
       <r>    -9.8231     0.0000   432.0000 </r>
       <r>    -9.6838     0.0000   432.0000 </r>
       <r>    -9.5444     0.0000   432.0000 </r>
       <r>    -9.4050     0.0000   432.0000 </r>
       <r>    -9.2657     0.0000   432.0000 </r>
       <r>    -9.1263     0.0000   432.0000 </r>
       <r>    -8.9870     0.0000   432.0000 </r>
       <r>    -8.8476     0.0000   432.0000 </r>
       <r>    -8.7083     0.0000   432.0000 </r>
       <r>    -8.5689     0.0000   432.0000 </r>
       <r>    -8.4295     0.0000   432.0000 </r>
       <r>    -8.2902     0.0000   432.0000 </r>
       <r>    -8.1508     0.0000   432.0000 </r>
       <r>    -8.0115     0.0000   432.0000 </r>
       <r>    -7.8721     0.0000   432.0000 </r>
       <r>    -7.7327     0.0000   432.0000 </r>
       <r>    -7.5934     0.0000   432.0000 </r>
       <r>    -7.4540     0.0000   432.0000 </r>
       <r>    -7.3147     0.0000   432.0000 </r>
       <r>    -7.1753     0.0000   432.0000 </r>
       <r>    -7.0360     0.0000   432.0000 </r>
       <r>    -6.8966     0.0000   432.0000 </r>
       <r>    -6.7572     0.0000   432.0000 </r>
       <r>    -6.6179     0.0000   432.0000 </r>
       <r>    -6.4785     0.0000   432.0000 </r>
       <r>    -6.3392     0.0000   432.0000 </r>
       <r>    -6.1998     0.0000   432.0000 </r>
       <r>    -6.0605     0.0000   432.0000 </r>
       <r>    -5.9211     0.0000   432.0000 </r>
       <r>    -5.7817     0.0000   432.0000 </r>
       <r>    -5.6424     0.0000   432.0000 </r>
       <r>    -5.5030     0.0000   432.0000 </r>
       <r>    -5.3637     0.0000   432.0000 </r>
       <r>    -5.2243     0.0000   432.0000 </r>
       <r>    -5.0850     0.0000   432.0000 </r>
       <r>    -4.9456     0.0000   432.0000 </r>
       <r>    -4.8062     0.0000   432.0000 </r>
       <r>    -4.6669     0.0000   432.0000 </r>
       <r>    -4.5275     0.0000   432.0000 </r>
       <r>    -4.3882     0.0000   432.0000 </r>
       <r>    -4.2488     0.0000   432.0000 </r>
       <r>    -4.1095     0.0000   432.0000 </r>
       <r>    -3.9701     0.0000   432.0000 </r>
       <r>    -3.8307     0.0000   432.0000 </r>
       <r>    -3.6914     0.0000   432.0000 </r>
       <r>    -3.5520    -0.0000   432.0000 </r>
       <r>    -3.4127    -0.0000   432.0000 </r>
       <r>    -3.2733    -0.0000   432.0000 </r>
       <r>    -3.1340    -0.0000   432.0000 </r>
       <r>    -2.9946    -0.0000   432.0000 </r>
       <r>    -2.8552    -0.0008   431.9999 </r>
       <r>    -2.7159    -0.0071   431.9989 </r>
       <r>    -2.5765     0.2234   432.0300 </r>
       <r>    -2.4372     1.5087   432.2403 </r>
       <r>    -2.2978     3.3187   432.7028 </r>
       <r>    -2.1584     2.6807   433.0763 </r>
       <r>    -2.0191     1.8371   433.3324 </r>
       <r>    -1.8797     6.3224   434.2134 </r>
       <r>    -1.7404     7.2514   435.2240 </r>
       <r>    -1.6010     1.5705   435.4428 </r>
       <r>    -1.4617     4.2932   436.0411 </r>
       <r>    -1.3223     8.5084   437.2268 </r>
       <r>    -1.1829     8.8495   438.4601 </r>
       <r>    -1.0436     6.3329   439.3426 </r>
       <r>    -0.9042     7.2872   440.3581 </r>
       <r>    -0.7649    12.6490   442.1208 </r>
       <r>    -0.6255     2.6535   442.4906 </r>
       <r>    -0.4862     8.6986   443.7028 </r>
       <r>    -0.3468    17.5237   446.1449 </r>
       <r>    -0.2074    12.4716   447.8829 </r>
       <r>    -0.0681    12.5615   449.6334 </r>
       <r>     0.0713    12.0519   451.3130 </r>
       <r>     0.2106    13.5331   453.1989 </r>
       <r>     0.3500    14.1596   455.1721 </r>
       <r>     0.4893    16.6547   457.4931 </r>
       <r>     0.6287    29.2152   461.5645 </r>
       <r>     0.7681    29.8409   465.7230 </r>
       <r>     0.9074    33.9965   470.4607 </r>
       <r>     1.0468    44.9588   476.7260 </r>
       <r>     1.1861    44.6995   482.9552 </r>
       <r>     1.3255    57.8519   491.0173 </r>
       <r>     1.4648    60.1855   499.4046 </r>
       <r>     1.6042    57.8790   507.4705 </r>
       <r>     1.7436    58.6538   515.6443 </r>
       <r>     1.8829    59.6604   523.9585 </r>
       <r>     2.0223    73.1989   534.1593 </r>
       <r>     2.1616    71.1271   544.0714 </r>
       <r>     2.3010    71.1160   553.9819 </r>
       <r>     2.4403    64.8390   563.0177 </r>
       <r>     2.5797    59.7320   571.3418 </r>
       <r>     2.7191    62.6823   580.0771 </r>
       <r>     2.8584    60.4044   588.4949 </r>
       <r>     2.9978    58.6419   596.6670 </r>
       <r>     3.1371    67.6341   606.0924 </r>
       <r>     3.2765    79.8192   617.2158 </r>
       <r>     3.4158    88.3805   629.5322 </r>
       <r>     3.5552    90.1901   642.1009 </r>
       <r>     3.6946    92.1413   654.9415 </r>
       <r>     3.8339    90.3550   667.5331 </r>
       <r>     3.9733    89.9677   680.0708 </r>
       <r>     4.1126    91.4304   692.8123 </r>
       <r>     4.2520    88.7133   705.1751 </r>
       <r>     4.3914    91.6202   717.9431 </r>
       <r>     4.5307    92.3654   730.8149 </r>
       <r>     4.6701    90.5542   743.4343 </r>
       <r>     4.8094    86.2098   755.4483 </r>
       <r>     4.9488    86.8172   767.5469 </r>
       <r>     5.0881    87.8129   779.7843 </r>
       <r>     5.2275    82.6106   791.2967 </r>
       <r>     5.3669    80.4880   802.5133 </r>
       <r>     5.5062    72.7592   812.6529 </r>
       <r>     5.6456    66.6525   821.9414 </r>
       <r>     5.7849    64.4240   830.9193 </r>
       <r>     5.9243    64.0890   839.8506 </r>
       <r>     6.0636    59.0569   848.0807 </r>
       <r>     6.2030    58.5014   856.2333 </r>
       <r>     6.3424    52.8813   863.6027 </r>
       <r>     6.4817    54.9902   871.2660 </r>
       <r>     6.6211    55.9835   879.0677 </r>
       <r>     6.7604    56.8663   886.9924 </r>
       <r>     6.8998    58.3225   895.1201 </r>
       <r>     7.0391    58.3567   903.2525 </r>
       <r>     7.1785    59.6720   911.5683 </r>
       <r>     7.3179    58.3609   919.7013 </r>
       <r>     7.4572    59.4319   927.9836 </r>
       <r>     7.5966    61.1000   936.4983 </r>
       <r>     7.7359    61.8163   945.1129 </r>
       <r>     7.8753    44.3991   951.3002 </r>
       <r>     8.0146     5.4862   952.0648 </r>
       <r>     8.1540    -0.4611   952.0005 </r>
       <r>     8.2934    -0.0038   952.0000 </r>
       <r>     8.4327    -0.0000   952.0000 </r>
       <r>     8.5721    -0.0000   952.0000 </r>
       <r>     8.7114     0.0000   952.0000 </r>
       <r>     8.8508     0.0000   952.0000 </r>
       <r>     8.9901     0.0000   952.0000 </r>
       <r>     9.1295     0.0000   952.0000 </r>
       <r>     9.2689     0.0000   952.0000 </r>
       <r>     9.4082     0.0000   952.0000 </r>
       <r>     9.5476     0.0000   952.0000 </r>
       <r>     9.6869     0.0000   952.0000 </r>
       <r>     9.8263     0.0000   952.0000 </r>
      </set>
     </set>
    </array>
   </total>
  </dos>
 </calculation>
 <structure name="finalpos" >
  <crystal>
   <varray name="basis" >
    <v>      10.11386021       0.00000000       0.00000000 </v>
    <v>       0.00000000      10.11386021       0.00000000 </v>
    <v>       0.00000000       0.00000000      13.48514695 </v>
   </varray>
   <i name="volume">   1379.39795121 </i>
   <varray name="rec_basis" >
    <v>       0.09887422       0.00000000       0.00000000 </v>
    <v>       0.00000000       0.09887422       0.00000000 </v>
    <v>       0.00000000       0.00000000       0.07415566 </v>
   </varray>
  </crystal>
  <varray name="positions" >
   <v>       0.99312922       0.98790471       0.02250242 </v>
   <v>       0.22821950       0.15084054       0.13162137 </v>
   <v>       0.02263459       0.02458380       0.28020855 </v>
   <v>       0.19906050       0.19237463       0.39162669 </v>
   <v>       0.99510868       0.03955771       0.49080989 </v>
   <v>       0.16937846       0.16438235       0.61652376 </v>
   <v>       0.97107928       0.04112575       0.71074446 </v>
   <v>       0.16919357       0.13746582       0.87757097 </v>
   <v>       0.99910807       0.30829871       0.99090307 </v>
   <v>       0.04144057       0.33675570       0.23501586 </v>
   <v>       0.98267129       0.33949749       0.49765742 </v>
   <v>       0.99718605       0.32513403       0.76497301 </v>
   <v>       0.16626887       0.51243640       0.11958664 </v>
   <v>       0.01964582       0.70233718       0.01527514 </v>
   <v>       0.20421383       0.49421784       0.37603101 </v>
   <v>       0.97207396       0.67265317       0.24428458 </v>
   <v>       0.16400267       0.48446389       0.64023577 </v>
   <v>       0.04311065       0.61896447       0.48546401 </v>
   <v>       0.14822828       0.52099100       0.87804557 </v>
   <v>       0.97415427       0.66260063       0.76437977 </v>
   <v>       0.19336733       0.85716630       0.14519482 </v>
   <v>       0.17349954       0.80238603       0.36582275 </v>
   <v>       0.09542708       0.81318606       0.61514669 </v>
   <v>       0.14698345       0.83608829       0.86793815 </v>
   <v>       0.35086703       0.98418209       0.97593104 </v>
   <v>       0.39005484       0.01720882       0.29632851 </v>
   <v>       0.32020218       0.98721753       0.49999703 </v>
   <v>       0.33839899       0.97996610       0.73787579 </v>
   <v>       0.30325613       0.29846073       0.00643868 </v>
   <v>       0.34911399       0.29603436       0.24761269 </v>
   <v>       0.32929169       0.36718227       0.52099050 </v>
   <v>       0.30754628       0.32322773       0.77602962 </v>
   <v>       0.32542175       0.65680759       0.01116029 </v>
   <v>       0.36006728       0.65364163       0.25688511 </v>
   <v>       0.32851948       0.63231051       0.49133788 </v>
   <v>       0.31796268       0.66391862       0.77218836 </v>
   <v>       0.51799016       0.15068036       0.09434554 </v>
   <v>       0.68078359       0.97512225       0.95759976 </v>
   <v>       0.52045312       0.20628623       0.39809306 </v>
   <v>       0.68649259       0.99475552       0.25013991 </v>
   <v>       0.46098127       0.22994683       0.61560497 </v>
   <v>       0.61957057       0.00507163       0.48978951 </v>
   <v>       0.50812845       0.16061030       0.84439373 </v>
   <v>       0.64239963       0.98941452       0.69765598 </v>
   <v>       0.67699473       0.33945892       0.02348573 </v>
   <v>       0.66437542       0.34612206       0.24233058 </v>
   <v>       0.65854382       0.34896370       0.51465983 </v>
   <v>       0.67492530       0.33191087       0.75291530 </v>
   <v>       0.51490133       0.51189160       0.12270192 </v>
   <v>       0.60547407       0.70866316       0.98401401 </v>
   <v>       0.53908300       0.49952540       0.39753096 </v>
   <v>       0.67777683       0.65883154       0.23431954 </v>
   <v>       0.46058775       0.48635239       0.66530632 </v>
   <v>       0.67031875       0.67412442       0.48333277 </v>
   <v>       0.50848044       0.47362926       0.89525709 </v>
   <v>       0.62764464       0.66826315       0.74307484 </v>
   <v>       0.49319350       0.83208586       0.13168069 </v>
   <v>       0.49823806       0.82733496       0.39356290 </v>
   <v>       0.46390004       0.81693734       0.61502507 </v>
   <v>       0.47708293       0.82703636       0.82795342 </v>
   <v>       0.84642065       0.14999912       0.12563256 </v>
   <v>       0.83311514       0.18458631       0.36785461 </v>
   <v>       0.80516241       0.19573932       0.60563326 </v>
   <v>       0.80296840       0.16276279       0.85774916 </v>
   <v>       0.85569999       0.48461023       0.11759482 </v>
   <v>       0.83757140       0.50027883       0.34701539 </v>
   <v>       0.81132030       0.52657146       0.63963437 </v>
   <v>       0.81686813       0.50047361       0.90819726 </v>
   <v>       0.87977982       0.83842864       0.15238421 </v>
   <v>       0.88496379       0.83148965       0.40163103 </v>
   <v>       0.82196114       0.81782128       0.62073358 </v>
   <v>       0.86596116       0.85865337       0.86083404 </v>
  </varray>
 </structure>
</modeling>
