unknown system                          
           1
    10.113860    0.000000    0.000000
     0.000000   10.113860    0.000000
     0.000000    0.000000   13.485147
   Ta
    72
Direct configuration=     1
   0.99312922  0.98790471  0.02250242
   0.22821950  0.15084054  0.13162137
   0.02263459  0.02458380  0.28020855
   0.19906050  0.19237463  0.39162669
   0.99510868  0.03955771  0.49080989
   0.16937846  0.16438235  0.61652376
   0.97107928  0.04112575  0.71074446
   0.16919357  0.13746582  0.87757097
   0.99910807  0.30829871  0.99090307
   0.04144057  0.33675570  0.23501586
   0.98267129  0.33949749  0.49765742
   0.99718605  0.32513403  0.76497301
   0.16626887  0.51243640  0.11958664
   0.01964582  0.70233718  0.01527514
   0.20421383  0.49421784  0.37603101
   0.97207396  0.67265317  0.24428458
   0.16400267  0.48446389  0.64023577
   0.04311065  0.61896447  0.48546401
   0.14822828  0.52099100  0.87804557
   0.97415427  0.66260063  0.76437977
   0.19336733  0.85716630  0.14519482
   0.17349954  0.80238603  0.36582275
   0.09542708  0.81318606  0.61514669
   0.14698345  0.83608829  0.86793815
   0.35086703  0.98418209  0.97593104
   0.39005484  0.01720882  0.29632851
   0.32020218  0.98721753  0.49999703
   0.33839899  0.97996610  0.73787579
   0.30325613  0.29846073  0.00643868
   0.34911399  0.29603436  0.24761269
   0.32929169  0.36718227  0.52099050
   0.30754628  0.32322773  0.77602962
   0.32542175  0.65680759  0.01116029
   0.36006728  0.65364163  0.25688511
   0.32851948  0.63231051  0.49133788
   0.31796268  0.66391862  0.77218836
   0.51799016  0.15068036  0.09434554
   0.68078359  0.97512225  0.95759976
   0.52045312  0.20628623  0.39809306
   0.68649259  0.99475552  0.25013991
   0.46098127  0.22994683  0.61560497
   0.61957057  0.00507163  0.48978951
   0.50812845  0.16061030  0.84439373
   0.64239963  0.98941452  0.69765598
   0.67699473  0.33945892  0.02348573
   0.66437542  0.34612206  0.24233058
   0.65854382  0.34896370  0.51465983
   0.67492530  0.33191087  0.75291530
   0.51490133  0.51189160  0.12270192
   0.60547407  0.70866316  0.98401401
   0.53908300  0.49952540  0.39753096
   0.67777683  0.65883154  0.23431954
   0.46058775  0.48635239  0.66530632
   0.67031875  0.67412442  0.48333277
   0.50848044  0.47362926  0.89525709
   0.62764464  0.66826315  0.74307484
   0.49319350  0.83208586  0.13168069
   0.49823806  0.82733496  0.39356290
   0.46390004  0.81693734  0.61502507
   0.47708293  0.82703636  0.82795342
   0.84642065  0.14999912  0.12563256
   0.83311514  0.18458631  0.36785461
   0.80516241  0.19573932  0.60563326
   0.80296840  0.16276279  0.85774916
   0.85569999  0.48461023  0.11759482
   0.83757140  0.50027883  0.34701539
   0.81132030  0.52657146  0.63963437
   0.81686813  0.50047361  0.90819726
   0.87977982  0.83842864  0.15238421
   0.88496379  0.83148965  0.40163103
   0.82196114  0.81782128  0.62073358
   0.86596116  0.85865337  0.86083404
