ITEM: TIMESTEP
0
ITEM: NUMBER OF ATOMS
54
ITEM: BOX BOUNDS pp pp pp
0.0000000000000000e+00 9.4501209999999993e+00
0.0000000000000000e+00 9.4501209999999993e+00
0.0000000000000000e+00 9.4501209999999993e+00
ITEM: ATOMS id element type x y z
1 Mo 1 9.42896 0.04434 0.111511
2 Mo 1 9.305 0.035523 3.19006
3 Mo 1 9.44247 0.00707814 6.31534
4 Mo 1 9.38347 3.18008 0.0267533
5 Mo 1 9.42631 3.14201 3.152
6 Mo 1 0.00996988 3.16434 6.41466
7 Mo 1 9.4097 6.3686 9.38755
8 Mo 1 9.36696 6.15363 3.07956
9 Mo 1 9.41615 6.33942 6.32474
10 Mo 1 3.05388 9.43629 0.117503
11 Mo 1 3.11123 9.44221 3.18062
12 Mo 1 3.11392 0.0551887 6.29487
13 Mo 1 3.11678 3.14753 0.0810442
14 Mo 1 3.14537 3.11403 3.24841
15 Mo 1 3.07462 3.13965 6.3337
16 Mo 1 3.15156 6.28037 0.0145154
17 Mo 1 3.13865 6.3436 3.13535
18 Mo 1 3.02979 6.36657 6.27807
19 Mo 1 6.28149 9.41355 0.128437
20 Mo 1 6.29094 0.0639206 3.17278
21 Mo 1 6.23785 0.0585624 6.39359
22 Mo 1 6.30451 3.15765 0.13422
23 Mo 1 6.21698 3.18164 3.25939
24 Mo 1 6.27126 3.22317 6.41521
25 Mo 1 6.28803 6.31805 0.121132
26 Mo 1 6.23136 6.34934 3.07563
27 Mo 1 6.20919 6.24508 6.31199
28 Mo 1 1.6141 1.47918 1.58938
29 Mo 1 1.5598 1.5863 4.73203
30 Mo 1 1.62191 1.57816 7.81883
31 Mo 1 1.64069 4.61023 1.53948
32 Mo 1 1.54818 4.65126 4.64066
33 Mo 1 1.6718 4.72852 7.8818
34 Mo 1 1.6236 7.7611 1.47989
35 Mo 1 1.61613 7.84627 4.58712
36 Mo 1 1.55691 7.87435 7.8575
37 Mo 1 4.72867 1.50275 1.57652
38 Mo 1 4.7714 1.58 4.67828
39 Mo 1 4.72862 1.56876 7.81691
40 Mo 1 4.74486 4.6961 1.50354
41 Mo 1 4.72 4.74304 4.68444
42 Mo 1 4.84689 4.72108 7.88889
43 Mo 1 4.81074 7.86721 1.50211
44 Mo 1 4.76482 7.94436 4.7373
45 Mo 1 4.72319 7.79926 7.85585
46 Mo 1 7.92887 1.61004 1.50039
47 Mo 1 7.96715 1.48655 4.76802
48 Mo 1 8.02175 1.61066 7.79671
49 Mo 1 7.87329 4.76493 1.52431
50 Mo 1 7.90792 4.68357 4.60759
51 Mo 1 7.93894 4.80027 7.77275
52 Mo 1 7.96812 7.92628 1.50039
53 Mo 1 7.85419 7.91243 4.75162
54 Mo 1 8.01982 7.87398 7.78691
