   2   2   0   0
  0.1335509E+02  0.2989227E-09  0.2989227E-09  0.2989227E-09  0.5000000E-15
  1.000000000000000E-004
  CAR 
 unknown system                          
     24.72514296    -29.00580869  301      8.20133250      1.00000000
    -29.006  0.0000E+00  0.0000E+00
    -28.827  0.0000E+00  0.0000E+00
    -28.648  0.0000E+00  0.0000E+00
    -28.468  0.0000E+00  0.0000E+00
    -28.289  0.0000E+00  0.0000E+00
    -28.110  0.0000E+00  0.0000E+00
    -27.931  0.0000E+00  0.0000E+00
    -27.752  0.0000E+00  0.0000E+00
    -27.573  0.0000E+00  0.0000E+00
    -27.394 -0.2679E-30 -0.4798E-31
    -27.215 -0.7111E-19 -0.1274E-19
    -27.036 -0.2808E-10 -0.5029E-11
    -26.857 -0.1712E-04 -0.3067E-05
    -26.677 -0.1343E-01 -0.2409E-02
    -26.498  0.3866E+00  0.6683E-01
    -26.319  0.1870E+01  0.4017E+00
    -26.140  0.3250E+01  0.9838E+00
    -25.961  0.5984E+01  0.2056E+01
    -25.782  0.4002E+01  0.2772E+01
    -25.603  0.2580E+01  0.3234E+01
    -25.424  0.2789E+01  0.3734E+01
    -25.245  0.2846E+01  0.4244E+01
    -25.066  0.3376E+01  0.4848E+01
    -24.886  0.3830E+01  0.5534E+01
    -24.707  0.4412E+01  0.6324E+01
    -24.528  0.5015E+01  0.7223E+01
    -24.349  0.4430E+01  0.8016E+01
    -24.170  0.4532E+01  0.8828E+01
    -23.991  0.6025E+01  0.9907E+01
    -23.812  0.7051E+01  0.1117E+02
    -23.633  0.4560E+01  0.1199E+02
    -23.454  0.8181E-01  0.1200E+02
    -23.275 -0.4802E-02  0.1200E+02
    -23.095 -0.2189E-06  0.1200E+02
    -22.916 -0.1764E-13  0.1200E+02
    -22.737  0.0000E+00  0.1200E+02
    -22.558  0.0000E+00  0.1200E+02
    -22.379  0.0000E+00  0.1200E+02
    -22.200  0.0000E+00  0.1200E+02
    -22.021  0.0000E+00  0.1200E+02
    -21.842  0.0000E+00  0.1200E+02
    -21.663  0.0000E+00  0.1200E+02
    -21.483  0.0000E+00  0.1200E+02
    -21.304  0.0000E+00  0.1200E+02
    -21.125  0.0000E+00  0.1200E+02
    -20.946  0.0000E+00  0.1200E+02
    -20.767  0.0000E+00  0.1200E+02
    -20.588  0.0000E+00  0.1200E+02
    -20.409  0.0000E+00  0.1200E+02
    -20.230  0.0000E+00  0.1200E+02
    -20.051  0.0000E+00  0.1200E+02
    -19.872  0.0000E+00  0.1200E+02
    -19.692  0.0000E+00  0.1200E+02
    -19.513  0.0000E+00  0.1200E+02
    -19.334  0.0000E+00  0.1200E+02
    -19.155  0.0000E+00  0.1200E+02
    -18.976  0.0000E+00  0.1200E+02
    -18.797  0.0000E+00  0.1200E+02
    -18.618  0.0000E+00  0.1200E+02
    -18.439  0.0000E+00  0.1200E+02
    -18.260  0.0000E+00  0.1200E+02
    -18.081  0.0000E+00  0.1200E+02
    -17.901  0.0000E+00  0.1200E+02
    -17.722  0.0000E+00  0.1200E+02
    -17.543  0.0000E+00  0.1200E+02
    -17.364  0.0000E+00  0.1200E+02
    -17.185  0.0000E+00  0.1200E+02
    -17.006  0.0000E+00  0.1200E+02
    -16.827  0.0000E+00  0.1200E+02
    -16.648  0.0000E+00  0.1200E+02
    -16.469  0.0000E+00  0.1200E+02
    -16.289  0.0000E+00  0.1200E+02
    -16.110  0.0000E+00  0.1200E+02
    -15.931  0.0000E+00  0.1200E+02
    -15.752  0.0000E+00  0.1200E+02
    -15.573  0.0000E+00  0.1200E+02
    -15.394  0.0000E+00  0.1200E+02
    -15.215  0.0000E+00  0.1200E+02
    -15.036  0.0000E+00  0.1200E+02
    -14.857  0.0000E+00  0.1200E+02
    -14.678  0.0000E+00  0.1200E+02
    -14.498  0.0000E+00  0.1200E+02
    -14.319  0.0000E+00  0.1200E+02
    -14.140  0.0000E+00  0.1200E+02
    -13.961  0.0000E+00  0.1200E+02
    -13.782  0.0000E+00  0.1200E+02
    -13.603  0.0000E+00  0.1200E+02
    -13.424  0.0000E+00  0.1200E+02
    -13.245  0.0000E+00  0.1200E+02
    -13.066  0.0000E+00  0.1200E+02
    -12.887  0.0000E+00  0.1200E+02
    -12.707  0.0000E+00  0.1200E+02
    -12.528  0.0000E+00  0.1200E+02
    -12.349  0.0000E+00  0.1200E+02
    -12.170  0.0000E+00  0.1200E+02
    -11.991  0.0000E+00  0.1200E+02
    -11.812  0.0000E+00  0.1200E+02
    -11.633  0.0000E+00  0.1200E+02
    -11.454  0.0000E+00  0.1200E+02
    -11.275  0.0000E+00  0.1200E+02
    -11.095  0.0000E+00  0.1200E+02
    -10.916  0.0000E+00  0.1200E+02
    -10.737  0.0000E+00  0.1200E+02
    -10.558  0.0000E+00  0.1200E+02
    -10.379  0.0000E+00  0.1200E+02
    -10.200  0.0000E+00  0.1200E+02
    -10.021  0.0000E+00  0.1200E+02
     -9.842  0.0000E+00  0.1200E+02
     -9.663  0.0000E+00  0.1200E+02
     -9.484  0.0000E+00  0.1200E+02
     -9.304  0.0000E+00  0.1200E+02
     -9.125  0.0000E+00  0.1200E+02
     -8.946  0.0000E+00  0.1200E+02
     -8.767  0.0000E+00  0.1200E+02
     -8.588  0.0000E+00  0.1200E+02
     -8.409  0.0000E+00  0.1200E+02
     -8.230  0.0000E+00  0.1200E+02
     -8.051  0.0000E+00  0.1200E+02
     -7.872  0.0000E+00  0.1200E+02
     -7.693  0.0000E+00  0.1200E+02
     -7.513  0.0000E+00  0.1200E+02
     -7.334  0.0000E+00  0.1200E+02
     -7.155  0.0000E+00  0.1200E+02
     -6.976  0.0000E+00  0.1200E+02
     -6.797  0.0000E+00  0.1200E+02
     -6.618  0.0000E+00  0.1200E+02
     -6.439  0.0000E+00  0.1200E+02
     -6.260  0.0000E+00  0.1200E+02
     -6.081  0.0000E+00  0.1200E+02
     -5.901  0.0000E+00  0.1200E+02
     -5.722  0.0000E+00  0.1200E+02
     -5.543  0.0000E+00  0.1200E+02
     -5.364  0.0000E+00  0.1200E+02
     -5.185  0.0000E+00  0.1200E+02
     -5.006  0.0000E+00  0.1200E+02
     -4.827  0.0000E+00  0.1200E+02
     -4.648  0.0000E+00  0.1200E+02
     -4.469  0.0000E+00  0.1200E+02
     -4.290  0.0000E+00  0.1200E+02
     -4.110  0.0000E+00  0.1200E+02
     -3.931  0.0000E+00  0.1200E+02
     -3.752  0.0000E+00  0.1200E+02
     -3.573  0.0000E+00  0.1200E+02
     -3.394  0.0000E+00  0.1200E+02
     -3.215  0.0000E+00  0.1200E+02
     -3.036  0.0000E+00  0.1200E+02
     -2.857  0.0000E+00  0.1200E+02
     -2.678  0.0000E+00  0.1200E+02
     -2.499  0.0000E+00  0.1200E+02
     -2.319  0.0000E+00  0.1200E+02
     -2.140  0.0000E+00  0.1200E+02
     -1.961  0.0000E+00  0.1200E+02
     -1.782  0.0000E+00  0.1200E+02
     -1.603 -0.3953E-38  0.1200E+02
     -1.424 -0.2621E-25  0.1200E+02
     -1.245 -0.2592E-15  0.1200E+02
     -1.066 -0.3750E-08  0.1200E+02
     -0.887 -0.6007E-04  0.1200E+02
     -0.708  0.2584E-02  0.1200E+02
     -0.528  0.4300E-02  0.1200E+02
     -0.349  0.4586E-01  0.1201E+02
     -0.170  0.3057E-01  0.1201E+02
      0.009  0.7695E-01  0.1203E+02
      0.188  0.6349E-01  0.1204E+02
      0.367  0.1866E-01  0.1204E+02
      0.546  0.4961E-01  0.1205E+02
      0.725  0.1872E+00  0.1209E+02
      0.904  0.1946E+00  0.1212E+02
      1.084  0.2475E-02  0.1212E+02
      1.263  0.8841E-01  0.1214E+02
      1.442  0.1211E+00  0.1216E+02
      1.621  0.1457E+00  0.1218E+02
      1.800  0.2183E+00  0.1222E+02
      1.979  0.2069E+00  0.1226E+02
      2.158  0.2434E+00  0.1230E+02
      2.337  0.5736E+00  0.1241E+02
      2.516  0.4486E+00  0.1249E+02
      2.695  0.9254E+00  0.1265E+02
      2.875  0.1413E+01  0.1291E+02
      3.054  0.1770E+01  0.1322E+02
      3.233  0.9173E+00  0.1339E+02
      3.412  0.1255E+01  0.1361E+02
      3.591  0.1666E+01  0.1391E+02
      3.770  0.2144E+01  0.1429E+02
      3.949  0.1367E+01  0.1454E+02
      4.128  0.2125E+01  0.1492E+02
      4.307  0.9535E+00  0.1509E+02
      4.486  0.2356E+01  0.1551E+02
      4.666  0.1584E+01  0.1580E+02
      4.845  0.8059E+00  0.1594E+02
      5.024  0.1559E+01  0.1622E+02
      5.203  0.6615E+00  0.1634E+02
      5.382  0.4604E+00  0.1642E+02
      5.561  0.8822E+00  0.1658E+02
      5.740  0.1572E+01  0.1686E+02
      5.919  0.2167E+01  0.1725E+02
      6.098  0.3103E+01  0.1780E+02
      6.278  0.3234E+01  0.1838E+02
      6.457  0.1860E+01  0.1872E+02
      6.636  0.2703E+01  0.1920E+02
      6.815  0.8950E+00  0.1936E+02
      6.994  0.1269E+01  0.1959E+02
      7.173  0.1008E+01  0.1977E+02
      7.352  0.1487E+01  0.2004E+02
      7.531  0.1802E+01  0.2036E+02
      7.710  0.2102E+01  0.2073E+02
      7.889  0.1683E+01  0.2104E+02
      8.069  0.2566E+01  0.2150E+02
      8.248  0.3410E+01  0.2211E+02
      8.427  0.1604E+01  0.2239E+02
      8.606  0.1422E+01  0.2265E+02
      8.785  0.5459E+00  0.2275E+02
      8.964  0.8348E+00  0.2290E+02
      9.143  0.1101E+01  0.2309E+02
      9.322  0.7146E+00  0.2322E+02
      9.501  0.5397E+00  0.2332E+02
      9.680  0.5110E+00  0.2341E+02
      9.860  0.7190E+00  0.2354E+02
     10.039  0.6795E+00  0.2366E+02
     10.218  0.1266E+01  0.2389E+02
     10.397  0.6822E+00  0.2401E+02
     10.576  0.9126E+00  0.2417E+02
     10.755  0.4304E+00  0.2425E+02
     10.934  0.7725E+00  0.2439E+02
     11.113  0.1316E+01  0.2462E+02
     11.292  0.1394E+01  0.2487E+02
     11.472  0.1212E+01  0.2509E+02
     11.651  0.1245E+01  0.2531E+02
     11.830  0.1553E+01  0.2559E+02
     12.009  0.1036E+01  0.2578E+02
     12.188  0.1693E+00  0.2581E+02
     12.367  0.1672E+01  0.2611E+02
     12.546  0.2184E+01  0.2650E+02
     12.725  0.1795E+01  0.2682E+02
     12.904  0.7071E+00  0.2695E+02
     13.083  0.1144E+01  0.2715E+02
     13.263  0.1495E+01  0.2742E+02
     13.442  0.1578E+01  0.2770E+02
     13.621  0.2043E+01  0.2807E+02
     13.800  0.1798E+01  0.2839E+02
     13.979  0.1856E+01  0.2872E+02
     14.158  0.7804E+00  0.2886E+02
     14.337  0.1411E+01  0.2911E+02
     14.516  0.2088E+01  0.2949E+02
     14.695  0.1482E+01  0.2975E+02
     14.874  0.4058E+01  0.3048E+02
     15.054  0.3725E+01  0.3115E+02
     15.233  0.1450E+01  0.3141E+02
     15.412  0.1996E+01  0.3176E+02
     15.591  0.1701E+01  0.3207E+02
     15.770  0.1165E+01  0.3228E+02
     15.949  0.6669E+00  0.3240E+02
     16.128  0.7152E+00  0.3253E+02
     16.307  0.2344E+00  0.3257E+02
     16.486  0.8142E+00  0.3271E+02
     16.666  0.9994E+00  0.3289E+02
     16.845  0.8957E+00  0.3305E+02
     17.024  0.1121E+01  0.3325E+02
     17.203  0.2411E+00  0.3330E+02
     17.382  0.8614E+00  0.3345E+02
     17.561  0.5468E+00  0.3355E+02
     17.740  0.1732E+00  0.3358E+02
     17.919  0.4009E+00  0.3365E+02
     18.098  0.7162E-01  0.3366E+02
     18.277  0.6428E+00  0.3378E+02
     18.457  0.9886E+00  0.3396E+02
     18.636  0.5715E+00  0.3406E+02
     18.815  0.4325E+00  0.3414E+02
     18.994  0.7500E+00  0.3427E+02
     19.173  0.4590E+00  0.3435E+02
     19.352  0.1645E+00  0.3438E+02
     19.531  0.7228E+00  0.3451E+02
     19.710  0.5235E+00  0.3461E+02
     19.889  0.3692E+00  0.3467E+02
     20.068  0.4792E+00  0.3476E+02
     20.248  0.9496E+00  0.3493E+02
     20.427  0.2411E+00  0.3497E+02
     20.606  0.6639E+00  0.3509E+02
     20.785  0.8307E+00  0.3524E+02
     20.964  0.4898E+00  0.3533E+02
     21.143  0.4526E+00  0.3541E+02
     21.322  0.2576E+00  0.3545E+02
     21.501  0.4153E+00  0.3553E+02
     21.680  0.3297E+00  0.3559E+02
     21.859  0.1067E+01  0.3578E+02
     22.039  0.7911E+00  0.3592E+02
     22.218  0.1263E-01  0.3592E+02
     22.397  0.4537E+00  0.3600E+02
     22.576 -0.1607E-01  0.3600E+02
     22.755 -0.5902E-04  0.3600E+02
     22.934 -0.1105E-09  0.3600E+02
     23.113  0.0000E+00  0.3600E+02
     23.292  0.0000E+00  0.3600E+02
     23.471  0.0000E+00  0.3600E+02
     23.651  0.0000E+00  0.3600E+02
     23.830  0.0000E+00  0.3600E+02
     24.009  0.0000E+00  0.3600E+02
     24.188  0.0000E+00  0.3600E+02
     24.367  0.0000E+00  0.3600E+02
     24.546  0.0000E+00  0.3600E+02
     24.725  0.0000E+00  0.3600E+02
