    2    2    1    1
  0.1335509E+02  0.2989227E-09  0.2989227E-09  0.2989227E-09  0.5000000E-15
  1.000000000000000E-004
  CAR 
 unknown system                          
     22     56     18
 
  0.0000000E+00  0.0000000E+00  0.0000000E+00  0.7513148E-03
      1        -25.610404   1.000000
      2        -25.610404   1.000000
      3        -25.610404   1.000000
      4        -23.643177   1.000000
      5        -23.643177   1.000000
      6        -23.643177   1.000000
      7         -0.683245   1.000000
      8          2.176634   1.000000
      9          2.176634   1.000000
     10          8.788806  -0.000000
     11          8.788807  -0.000000
     12          8.788807  -0.000000
     13         13.224020   0.000000
     14         13.224021   0.000000
     15         17.777868   0.000000
     16         17.777869   0.000000
     17         17.777869   0.000000
     18         20.221302   0.000000
 
  0.9090909E-01 -0.1003141E-32  0.0000000E+00  0.4507889E-02
      1        -25.622792   1.000000
      2        -25.571023   1.000000
      3        -25.571023   1.000000
      4        -23.746108   1.000000
      5        -23.682850   1.000000
      6        -23.682850   1.000000
      7         -0.403213   1.000000
      8          2.306041   1.000000
      9          2.436381   1.000000
     10          8.751046  -0.000000
     11          8.751047  -0.000000
     12          8.909624  -0.000000
     13         12.694827   0.000000
     14         13.395340   0.000000
     15         16.350256   0.000000
     16         16.350257   0.000000
     17         17.459277   0.000000
     18         19.549415   0.000000
 
  0.1818182E+00  0.2414725E-32  0.0000000E+00  0.4507889E-02
      1        -25.646552   1.000000
      2        -25.455853   1.000000
      3        -25.455853   1.000000
      4        -24.025608   1.000000
      5        -23.798880   1.000000
      6        -23.798880   1.000000
      7          0.389000   1.000000
      8          2.693050   1.000000
      9          3.152172   1.000000
     10          8.685642  -0.000000
     11          8.685643  -0.000000
     12          9.269802  -0.000000
     13         11.402596   0.000000
     14         13.885557   0.000000
     15         14.405314   0.000000
     16         14.405315   0.000000
     17         16.604444   0.000000
     18         18.063571   0.000000
 
  0.2727273E+00  0.1391076E-32  0.0000000E+00  0.4507889E-02
      1        -25.647660   1.000000
      2        -25.273674   1.000000
      3        -25.273674   1.000000
      4        -24.409114   1.000000
      5        -23.982330   1.000000
      6        -23.982330   1.000000
      7          1.561782   1.000000
      8          3.333794   1.000000
      9          4.110604   1.000000
     10          8.701015  -0.000000
     11          8.701015  -0.000000
     12          9.807931  -0.000000
     13          9.862184  -0.000000
     14         12.680848   0.000000
     15         12.680849   0.000000
     16         14.597737   0.000000
     17         15.428524   0.000000
     18         16.524374   0.000000
 
  0.3636364E+00 -0.5877576E-32  0.0000000E+00  0.4507889E-02
      1        -25.585886   1.000000
      2        -25.038688   1.000000
      3        -25.038688   1.000000
      4        -24.812812   1.000000
      5        -24.218647   1.000000
      6        -24.218647   1.000000
      7          2.917504   1.000000
      8          4.220953   1.000000
      9          4.890706   1.000000
     10          8.187549   0.615426
     11          8.905158  -0.000000
     12          8.905159  -0.000000
     13         10.673495  -0.000000
     14         11.255788   0.000000
     15         11.255788   0.000000
     16         14.131451   0.000000
     17         15.273758   0.000000
     18         15.478987   0.000000
 
  0.4545455E+00  0.3887830E-32  0.0000000E+00  0.4507889E-02
      1        -25.429734   1.000000
      2        -25.167331   1.000000
      3        -24.769643   1.000000
      4        -24.769643   1.000000
      5        -24.488542   1.000000
      6        -24.488542   1.000000
      7          4.180810   1.000000
      8          4.959600   1.000000
      9          5.342159   1.000000
     10          6.676477   1.000000
     11          9.374796  -0.000000
     12          9.374796  -0.000000
     13         10.152828  -0.000000
     14         10.152829  -0.000000
     15         11.682012   0.000000
     16         12.853070   0.000000
     17         15.261037   0.000000
     18         15.479491   0.000000
 
  0.9090909E-01  0.9090909E-01  0.0000000E+00  0.9015778E-02
      1        -25.693770   1.000000
      2        -25.532780   1.000000
      3        -25.474576   1.000000
      4        -23.917832   1.000000
      5        -23.720360   1.000000
      6        -23.646766   1.000000
      7         -0.138003   1.000000
      8          2.492785   1.000000
      9          2.634124   1.000000
     10          8.430242  -0.002819
     11          8.673659  -0.000000
     12          9.325498  -0.000000
     13         12.653814   0.000000
     14         13.212169   0.000000
     15         15.089481   0.000000
     16         15.215986   0.000000
     17         17.890498   0.000000
     18         20.255439   0.000000
 
  0.1818182E+00  0.9090909E-01  0.0000000E+00  0.1803156E-01
      1        -25.763157   1.000000
      2        -25.421017   1.000000
      3        -25.318530   1.000000
      4        -24.237428   1.000000
      5        -23.830231   1.000000
      6        -23.703962   1.000000
      7          0.608706   1.000000
      8          2.884559   1.000000
      9          3.327879   1.000000
     10          8.156263   0.841826
     11          8.500798  -0.000096
     12          9.922472  -0.000000
     13         11.730799   0.000000
     14         13.330368   0.000000
     15         13.475830   0.000000
     16         13.637181   0.000000
     17         17.476110   0.000000
     18         19.111311   0.000000
 
  0.2727273E+00  0.9090909E-01  0.0000000E+00  0.1803156E-01
      1        -25.793034   1.000000
      2        -25.244486   1.000000
      3        -25.115999   1.000000
      4        -24.629950   1.000000
      5        -24.004431   1.000000
      6        -23.852940   1.000000
      7          1.702119   1.000000
      8          3.490772   1.000000
      9          4.275313   1.000000
     10          8.051048   1.027524
     11          8.273591   0.032490
     12         10.526275  -0.000000
     13         10.664747  -0.000000
     14         11.718192   0.000000
     15         11.978602   0.000000
     16         14.410103   0.000000
     17         16.420493   0.000000
     18         17.442044   0.000000
 
  0.3636364E+00  0.9090909E-01  0.0000000E+00  0.1803156E-01
      1        -25.752322   1.000000
      2        -25.026959   1.000000
      3        -25.017296   1.000000
      4        -24.872540   1.000000
      5        -24.229655   1.000000
      6        -24.068796   1.000000
      7          2.945682   1.000000
      8          4.287642   1.000000
      9          5.031715   1.000000
     10          7.702355   1.000000
     11          8.180447   0.672548
     12          9.820333  -0.000000
     13         10.367892  -0.000000
     14         10.948391   0.000000
     15         11.570562   0.000000
     16         15.143420   0.000000
     17         15.152551   0.000000
     18         16.103772   0.000000
 
  0.4545455E+00  0.9090909E-01  0.0000000E+00  0.1803156E-01
      1        -25.614117   1.000000
      2        -25.367963   1.000000
      3        -24.757946   1.000000
      4        -24.602673   1.000000
      5        -24.487908   1.000000
      6        -24.326894   1.000000
      7          4.093183   1.000000
      8          4.779425   1.000000
      9          5.548810   1.000000
     10          6.629541   1.000000
     11          8.594802  -0.000000
     12          9.321909  -0.000000
     13          9.929583  -0.000000
     14         10.360041  -0.000000
     15         12.639623   0.000000
     16         13.848514   0.000000
     17         15.473231   0.000000
     18         15.508783   0.000000
 
  0.1818182E+00  0.1818182E+00  0.0000000E+00  0.9015778E-02
      1        -25.911529   1.000000
      2        -25.319452   1.000000
      3        -25.098203   1.000000
      4        -24.610780   1.000000
      5        -23.922515   1.000000
      6        -23.656556   1.000000
      7          1.211212   1.000000
      8          3.281150   1.000000
      9          3.955529   1.000000
     10          7.585826   1.000000
     11          8.181839   0.661539
     12         10.883606  -0.000000
     13         11.696327   0.000000
     14         12.003966   0.000000
     15         12.209813   0.000000
     16         13.274893   0.000000
     17         18.202167   0.000000
     18         20.189675   0.000000
 
  0.2727273E+00  0.1818182E+00  0.0000000E+00  0.1803156E-01
      1        -26.011339   1.000000
      2        -25.159804   1.000000
      3        -25.024796   1.000000
      4        -24.851525   1.000000
      5        -24.070153   1.000000
      6        -23.713675   1.000000
      7          2.043527   1.000000
      8          3.725767   1.000000
      9          4.918222   1.000000
     10          7.237646   1.000000
     11          7.945530   1.000890
     12         10.195830  -0.000000
     13         10.888227  -0.000000
     14         11.716023   0.000000
     15         11.941086   0.000000
     16         13.924527   0.000000
     17         17.869958   0.000000
     18         19.020020   0.000000
 
  0.3636364E+00  0.1818182E+00  0.0000000E+00  0.1803156E-01
      1        -26.028684   1.000000
      2        -25.415112   1.000000
      3        -24.955802   1.000000
      4        -24.588059   1.000000
      5        -24.263273   1.000000
      6        -23.859620   1.000000
      7          2.912242   1.000000
      8          4.105117   1.000000
      9          5.793262   1.000000
     10          7.174568   1.000000
     11          7.675282   1.000000
     12          8.956493  -0.000000
     13         10.534291  -0.000000
     14         11.190107   0.000000
     15         13.087101   0.000000
     16         14.806892   0.000000
     17         16.856027   0.000000
     18         17.356696   0.000000
 
  0.4545455E+00  0.1818182E+00  0.0000000E+00  0.1803156E-01
      1        -25.938374   1.000000
      2        -25.730397   1.000000
      3        -24.725089   1.000000
      4        -24.487579   1.000000
      5        -24.321234   1.000000
      6        -24.070543   1.000000
      7          3.655832   1.000000
      8          4.118009   1.000000
      9          6.457938   1.000000
     10          7.135652   1.000000
     11          7.432908   1.000000
     12          8.028061   1.017145
     13         10.860527  -0.000000
     14         11.074753   0.000000
     15         14.317175   0.000000
     16         15.417752   0.000000
     17         15.602009   0.000000
     18         16.083174   0.000000
 
  0.2727273E+00  0.2727273E+00  0.0000000E+00  0.9015778E-02
      1        -26.184795   1.000000
      2        -25.439407   1.000000
      3        -25.027940   1.000000
      4        -24.575548   1.000000
      5        -24.177247   1.000000
      6        -23.669730   1.000000
      7          2.414411   1.000000
      8          3.792454   1.000000
      9          6.001570   1.000000
     10          6.659708   1.000000
     11          8.080060   1.035435
     12          8.809004  -0.000000
     13         10.269454  -0.000000
     14         12.679840   0.000000
     15         13.306293   0.000000
     16         13.577022   0.000000
     17         18.633647   0.000000
     18         19.521990   0.000000
 
  0.3636364E+00  0.2727273E+00  0.0000000E+00  0.1803156E-01
      1        -26.270518   1.000000
      2        -25.807975   1.000000
      3        -24.861783   1.000000
      4        -24.320693   1.000000
      5        -24.307613   1.000000
      6        -23.723968   1.000000
      7          2.726278   1.000000
      8          3.652098   1.000000
      9          6.392727   1.000000
     10          7.100613   1.000000
     11          7.695261   1.000000
     12          8.425171  -0.003437
     13         10.527362  -0.000000
     14         12.542900   0.000000
     15         14.333065   0.000000
     16         14.698796   0.000000
     17         18.226852   0.000000
     18         18.346851   0.000000
 
  0.4545455E+00  0.2727273E+00  0.0000000E+00  0.1803156E-01
      1        -26.240932   1.000000
      2        -26.084313   1.000000
      3        -24.677329   1.000000
      4        -24.491669   1.000000
      5        -24.063425   1.000000
      6        -23.861876   1.000000
      7          3.026891   1.000000
      8          3.356125   1.000000
      9          6.471286   1.000000
     10          6.907621   1.000000
     11          7.907252   1.000130
     12          8.406331  -0.006779
     13         11.507126   0.000000
     14         12.283190   0.000000
     15         15.233477   0.000000
     16         16.076562   0.000000
     17         16.532937   0.000000
     18         17.358767   0.000000
 
  0.3636364E+00  0.3636364E+00  0.0000000E+00  0.9015778E-02
      1        -26.425124   1.000000
      2        -26.138510   1.000000
      3        -24.746588   1.000000
      4        -24.402163   1.000000
      5        -24.060185   1.000000
      6        -23.682182   1.000000
      7          2.541168   1.000000
      8          3.138134   1.000000
      9          5.929847   1.000000
     10          6.722206   1.000000
     11          8.558227  -0.000003
     12          9.518516  -0.000000
     13         11.104978   0.000000
     14         13.408144   0.000000
     15         14.153335   0.000000
     16         16.273212   0.000000
     17         17.804735   0.000000
     18         19.057027   0.000000
 
  0.4545455E+00  0.3636364E+00  0.0000000E+00  0.1803156E-01
      1        -26.461131   1.000000
      2        -26.364138   1.000000
      3        -24.623450   1.000000
      4        -24.505215   1.000000
      5        -23.862970   1.000000
      6        -23.732064   1.000000
      7          2.521149   1.000000
      8          2.728185   1.000000
      9          5.824417   1.000000
     10          6.090343   1.000000
     11          9.652633  -0.000000
     12         10.071364  -0.000000
     13         12.246217   0.000000
     14         13.235177   0.000000
     15         14.907070   0.000000
     16         16.352139   0.000000
     17         17.689407   0.000000
     18         18.739676   0.000000
 
  0.4545455E+00  0.4545455E+00  0.0000000E+00  0.9015778E-02
      1        -26.563493   1.000000
      2        -26.530661   1.000000
      3        -24.572596   1.000000
      4        -24.531994   1.000000
      5        -23.735144   1.000000
      6        -23.689735   1.000000
      7          2.280527   1.000000
      8          2.351651   1.000000
      9          5.536795   1.000000
     10          5.626117   1.000000
     11         11.180354   0.000000
     12         11.423062   0.000000
     13         13.031017   0.000000
     14         13.545181   0.000000
     15         14.737749   0.000000
     16         15.465771   0.000000
     17         18.893084   0.000000
     18         19.322682   0.000000
 
  0.9090909E-01  0.9090909E-01  0.9090909E-01  0.6010518E-02
      1        -25.653044   1.000000
      2        -25.653044   1.000000
      3        -25.334109   1.000000
      4        -24.073434   1.000000
      5        -23.688339   1.000000
      6        -23.688339   1.000000
      7          0.116913   1.000000
      8          2.753933   1.000000
      9          2.753933   1.000000
     10          8.345071  -0.030329
     11          8.345072  -0.030329
     12          9.754622  -0.000000
     13         12.866661   0.000000
     14         12.866661   0.000000
     15         13.375427   0.000000
     16         16.475192   0.000000
     17         16.475193   0.000000
     18         21.927306   0.000000
 
  0.1818182E+00  0.9090909E-01  0.9090909E-01  0.1803156E-01
      1        -25.770421   1.000000
      2        -25.533888   1.000000
      3        -25.145933   1.000000
      4        -24.394282   1.000000
      5        -23.809841   1.000000
      6        -23.710614   1.000000
      7          0.831042   1.000000
      8          3.110353   1.000000
      9          3.469326   1.000000
     10          7.978356   1.003552
     11          8.126020   0.977064
     12         10.477609  -0.000000
     13         11.661020   0.000000
     14         11.982929   0.000000
     15         13.453849   0.000000
     16         14.566055   0.000000
     17         16.609093   0.000000
     18         20.527976   0.000000
 
  0.2727273E+00  0.9090909E-01  0.9090909E-01  0.1803156E-01
      1        -25.838888   1.000000
      2        -25.345241   1.000000
      3        -24.931420   1.000000
      4        -24.781526   1.000000
      5        -24.001722   1.000000
      6        -23.815832   1.000000
      7          1.864513   1.000000
      8          3.693245   1.000000
      9          4.397631   1.000000
     10          7.808760   1.000000
     11          7.848204   1.000004
     12         10.256358  -0.000000
     13         10.929372  -0.000000
     14         11.336727   0.000000
     15         12.893470   0.000000
     16         14.269433   0.000000
     17         15.788423   0.000000
     18         18.865598   0.000000
 
  0.3636364E+00  0.9090909E-01  0.9090909E-01  0.1803156E-01
      1        -25.828632   1.000000
      2        -25.166121   1.000000
      3        -25.101617   1.000000
      4        -24.694614   1.000000
      5        -24.248493   1.000000
      6        -23.987115   1.000000
      7          3.020031   1.000000
      8          4.480954   1.000000
      9          5.032051   1.000000
     10          7.286117   1.000000
     11          8.030664   1.018257
     12          9.369025  -0.000000
     13         10.174931  -0.000000
     14         11.548055   0.000000
     15         12.327887   0.000000
     16         14.816555   0.000000
     17         15.054885   0.000000
     18         17.281326   0.000000
 
  0.4545455E+00  0.9090909E-01  0.9090909E-01  0.1803156E-01
      1        -25.715209   1.000000
      2        -25.489890   1.000000
      3        -24.822253   1.000000
      4        -24.529814   1.000000
      5        -24.446641   1.000000
      6        -24.204237   1.000000
      7          4.091362   1.000000
      8          4.873414   1.000000
      9          5.428239   1.000000
     10          6.433572   1.000000
     11          8.472443  -0.000428
     12          8.931800  -0.000000
     13         10.075762  -0.000000
     14         10.582716  -0.000000
     15         13.364711   0.000000
     16         14.143161   0.000000
     17         15.512339   0.000000
     18         16.047848   0.000000
 
  0.1818182E+00  0.1818182E+00  0.9090909E-01  0.1803156E-01
      1        -25.867404   1.000000
      2        -25.501253   1.000000
      3        -24.917408   1.000000
      4        -24.726548   1.000000
      5        -23.888443   1.000000
      6        -23.703231   1.000000
      7          1.437923   1.000000
      8          3.556095   1.000000
      9          4.045435   1.000000
     10          7.470538   1.000000
     11          7.789478   1.000000
     12         10.047687  -0.000000
     13         11.464214   0.000000
     14         12.389363   0.000000
     15         13.202222   0.000000
     16         13.648499   0.000000
     17         16.794931   0.000000
     18         21.834531   0.000000
 
  0.2727273E+00  0.1818182E+00  0.9090909E-01  0.3606311E-01
      1        -25.980009   1.000000
      2        -25.333348   1.000000
      3        -25.111208   1.000000
      4        -24.681665   1.000000
      5        -24.057203   1.000000
      6        -23.746100   1.000000
      7          2.263057   1.000000
      8          4.008235   1.000000
      9          4.968448   1.000000
     10          7.113904   1.000000
     11          7.571033   1.000000
     12          8.825427  -0.000000
     13         11.860021   0.000000
     14         12.310527   0.000000
     15         12.608919   0.000000
     16         13.891967   0.000000
     17         16.479707   0.000000
     18         20.616997   0.000000
 
  0.3636364E+00  0.1818182E+00  0.9090909E-01  0.3606311E-01
      1        -26.019790   1.000000
      2        -25.476241   1.000000
      3        -25.100013   1.000000
      4        -24.446275   1.000000
      5        -24.284665   1.000000
      6        -23.855376   1.000000
      7          3.097627   1.000000
      8          4.393740   1.000000
      9          5.644578   1.000000
     10          6.880354   1.000000
     11          7.585972   1.000000
     12          8.279851   0.013841
     13         11.283573   0.000000
     14         11.397814   0.000000
     15         13.777073   0.000000
     16         14.775607   0.000000
     17         15.585369   0.000000
     18         18.934750   0.000000
 
  0.4545455E+00  0.1818182E+00  0.9090909E-01  0.3606311E-01
      1        -25.952782   1.000000
      2        -25.767940   1.000000
      3        -24.830482   1.000000
      4        -24.550251   1.000000
      5        -24.220935   1.000000
      6        -24.018858   1.000000
      7          3.811373   1.000000
      8          4.331456   1.000000
      9          6.049592   1.000000
     10          6.527468   1.000000
     11          7.849162   1.000004
     12          8.138031   0.934280
     13         11.072861   0.000000
     14         11.105431   0.000000
     15         14.596564   0.000000
     16         14.894868   0.000000
     17         15.762576   0.000000
     18         17.250582   0.000000
 
  0.2727273E+00  0.2727273E+00  0.9090909E-01  0.1803156E-01
      1        -26.136630   1.000000
      2        -25.483523   1.000000
      3        -25.201518   1.000000
      4        -24.438868   1.000000
      5        -24.174720   1.000000
      6        -23.723117   1.000000
      7          2.685547   1.000000
      8          4.081179   1.000000
      9          6.036035   1.000000
     10          6.578449   1.000000
     11          7.679354   1.000000
     12          7.782544   1.000000
     13         11.434582   0.000000
     14         12.693629   0.000000
     15         13.634949   0.000000
     16         14.005430   0.000000
     17         17.097473   0.000000
     18         21.248904   0.000000
 
  0.3636364E+00  0.2727273E+00  0.9090909E-01  0.3606311E-01
      1        -26.227738   1.000000
      2        -25.821574   1.000000
      3        -25.005669   1.000000
      4        -24.343269   1.000000
      5        -24.216374   1.000000
      6        -23.766359   1.000000
      7          2.997873   1.000000
      8          3.908003   1.000000
      9          6.314044   1.000000
     10          6.763171   1.000000
     11          7.537845   1.000000
     12          8.101373   1.025085
     13         11.195863   0.000000
     14         12.542405   0.000000
     15         14.355734   0.000000
     16         15.387871   0.000000
     17         16.629917   0.000000
     18         20.133237   0.000000
 
  0.4545455E+00  0.2727273E+00  0.9090909E-01  0.3606311E-01
      1        -26.212093   1.000000
      2        -26.074282   1.000000
      3        -24.779766   1.000000
      4        -24.551059   1.000000
      5        -24.023490   1.000000
      6        -23.869971   1.000000
      7          3.267245   1.000000
      8          3.584158   1.000000
      9          6.317767   1.000000
     10          6.525601   1.000000
     11          8.111623   1.010890
     12          8.345428  -0.030184
     13         11.743519   0.000000
     14         12.275418   0.000000
     15         14.991579   0.000000
     16         15.673389   0.000000
     17         16.874064   0.000000
     18         18.518055   0.000000
 
  0.3636364E+00  0.3636364E+00  0.9090909E-01  0.1803156E-01
      1        -26.373603   1.000000
      2        -26.121987   1.000000
      3        -24.863925   1.000000
      4        -24.433502   1.000000
      5        -24.023590   1.000000
      6        -23.741758   1.000000
      7          2.837032   1.000000
      8          3.378867   1.000000
      9          5.899843   1.000000
     10          6.514482   1.000000
     11          8.493737  -0.000142
     12          9.143325  -0.000000
     13         11.544344   0.000000
     14         13.386587   0.000000
     15         14.222892   0.000000
     16         16.785082   0.000000
     17         16.910072   0.000000
     18         20.255536   0.000000
 
  0.4545455E+00  0.3636364E+00  0.9090909E-01  0.3606311E-01
      1        -26.413257   1.000000
      2        -26.328029   1.000000
      3        -24.706351   1.000000
      4        -24.557156   1.000000
      5        -23.876315   1.000000
      6        -23.780413   1.000000
      7          2.802780   1.000000
      8          2.983261   1.000000
      9          5.799413   1.000000
     10          6.023114   1.000000
     11          9.537618  -0.000000
     12          9.814521  -0.000000
     13         12.452856   0.000000
     14         13.252107   0.000000
     15         14.844452   0.000000
     16         15.880172   0.000000
     17         18.274926   0.000000
     18         19.473683   0.000000
 
  0.4545455E+00  0.4545455E+00  0.9090909E-01  0.1803156E-01
      1        -26.510097   1.000000
      2        -26.481253   1.000000
      3        -24.635491   1.000000
      4        -24.583657   1.000000
      5        -23.785578   1.000000
      6        -23.753001   1.000000
      7          2.574932   1.000000
      8          2.634148   1.000000
      9          5.539494   1.000000
     10          5.621694   1.000000
     11         10.904540  -0.000000
     12         11.060307   0.000000
     13         13.182034   0.000000
     14         13.603375   0.000000
     15         14.770189   0.000000
     16         15.313215   0.000000
     17         19.355147   0.000000
     18         19.814868   0.000000
 
  0.1818182E+00  0.1818182E+00  0.1818182E+00  0.6010518E-02
      1        -25.738154   1.000000
      2        -25.738154   1.000000
      3        -25.000660   1.000000
      4        -24.673461   1.000000
      5        -23.839414   1.000000
      6        -23.839414   1.000000
      7          2.047590   1.000000
      8          4.306744   1.000000
      9          4.306745   1.000000
     10          7.188715   1.000000
     11          7.188716   1.000000
     12          8.478195  -0.000321
     13         12.635554   0.000000
     14         12.928430   0.000000
     15         12.928431   0.000000
     16         14.992970   0.000000
     17         14.992971   0.000000
     18         22.268278   0.000000
 
  0.2727273E+00  0.1818182E+00  0.1818182E+00  0.1803156E-01
      1        -25.925882   1.000000
      2        -25.533082   1.000000
      3        -25.331133   1.000000
      4        -24.445711   1.000000
      5        -24.053763   1.000000
      6        -23.826497   1.000000
      7          2.828182   1.000000
      8          4.712140   1.000000
      9          5.174695   1.000000
     10          6.854915   1.000000
     11          6.917834   1.000000
     12          7.421457   1.000000
     13         12.439834   0.000000
     14         13.479967   0.000000
     15         13.744586   0.000000
     16         13.942504   0.000000
     17         15.318262   0.000000
     18         22.282730   0.000000
 
  0.3636364E+00  0.1818182E+00  0.1818182E+00  0.1803156E-01
      1        -26.026601   1.000000
      2        -25.643691   1.000000
      3        -25.267361   1.000000
      4        -24.328205   1.000000
      5        -24.244247   1.000000
      6        -23.862153   1.000000
      7          3.503778   1.000000
      8          5.158167   1.000000
      9          5.209346   1.000000
     10          6.523498   1.000000
     11          7.189189   1.000000
     12          7.578559   1.000000
     13         11.906844   0.000000
     14         12.364293   0.000000
     15         14.585015   0.000000
     16         14.899922   0.000000
     17         15.273021   0.000000
     18         20.707525   0.000000
 
  0.4545455E+00  0.1818182E+00  0.1818182E+00  0.1803156E-01
      1        -26.015141   1.000000
      2        -25.883283   1.000000
      3        -24.961363   1.000000
      4        -24.639476   1.000000
      5        -24.075660   1.000000
      6        -23.946428   1.000000
      7          4.020922   1.000000
      8          4.560055   1.000000
      9          5.719258   1.000000
     10          6.162638   1.000000
     11          7.788948   1.000000
     12          8.050632   1.027338
     13         11.595681   0.000000
     14         11.723123   0.000000
     15         14.665226   0.000000
     16         14.819112   0.000000
     17         16.890148   0.000000
     18         18.757981   0.000000
 
  0.2727273E+00  0.2727273E+00  0.1818182E+00  0.1803156E-01
      1        -25.995349   1.000000
      2        -25.607396   1.000000
      3        -25.495970   1.000000
      4        -24.243095   1.000000
      5        -24.159289   1.000000
      6        -23.878497   1.000000
      7          3.433929   1.000000
      8          4.887064   1.000000
      9          6.123061   1.000000
     10          6.393496   1.000000
     11          6.512479   1.000000
     12          6.857345   1.000000
     13         13.039856   0.000000
     14         13.042341   0.000000
     15         13.719328   0.000000