<?xml version="1.0" encoding="ISO-8859-1"?>
<modeling>
 <generator>
  <i name="program" type="string">vasp </i>
  <i name="version" type="string">6.3.0  </i>
  <i name="subversion" type="string">20Jan22 (build Mar 25 2022 12:20:17) complex                          parallel </i>
  <i name="platform" type="string">LinuxIFC </i>
  <i name="date" type="string">2023 08 20 </i>
  <i name="time" type="string">15:14:32 </i>
 </generator>
 <incar>
  <i type="string" name="PREC">Accurate</i>
  <i type="string" name="ALGO">normal</i>
  <i type="int" name="NELM">   400</i>
  <i name="EDIFF">      0.00001000</i>
  <i type="int" name="NSW">     0</i>
  <i type="int" name="ISIF">     2</i>
  <i name="ENCUT">    520.00000000</i>
  <i type="string" name="LREAL">Auto</i>
  <i type="int" name="ISMEAR">     1</i>
  <i name="SIGMA">      0.10000000</i>
  <i name="KSPACING">      0.20000000</i>
  <i type="logical" name="LWAVE"> F  </i>
  <i type="logical" name="LCHARG"> F  </i>
  <i type="logical" name="LASPH"> T  </i>
 </incar>
 <primitive_cell>
  <structure name="primitive_cell" >
   <crystal>
    <varray name="basis" >
     <v>       1.49461367       1.49461367      -1.49461367 </v>
     <v>      -1.49461367       1.49461367       1.49461367 </v>
     <v>       1.49461367      -1.49461367       1.49461367 </v>
    </varray>
    <i name="volume">     13.35509074 </i>
    <varray name="rec_basis" >
     <v>       0.33453461       0.33453461      -0.00000000 </v>
     <v>      -0.00000000       0.33453461       0.33453461 </v>
     <v>       0.33453461      -0.00000000       0.33453461 </v>
    </varray>
   </crystal>
   <varray name="positions" >
    <v>       0.00000000       0.00000000       0.00000000 </v>
   </varray>
  </structure>
  <varray name="primitive_index" >
   <v type="int" >        1 </v>
  </varray>
 </primitive_cell>
 <kpoints>
  <generation param="Gamma">
   <v type="int" name="divisions">      11       11       11 </v>
   <v name="usershift">      0.00000000       0.00000000       0.00000000 </v>
   <v name="genvec1">      0.09090909      -0.00000000       0.00000000 </v>
   <v name="genvec2">      0.00000000       0.09090909       0.00000000 </v>
   <v name="genvec3">     -0.00000000      -0.00000000       0.09090909 </v>
   <v name="shift">      0.00000000       0.00000000       0.00000000 </v>
  </generation>
  <varray name="kpointlist" >
   <v>       0.00000000       0.00000000       0.00000000 </v>
   <v>       0.09090909      -0.00000000       0.00000000 </v>
   <v>       0.18181818       0.00000000       0.00000000 </v>
   <v>       0.27272727       0.00000000       0.00000000 </v>
   <v>       0.36363636      -0.00000000       0.00000000 </v>
   <v>       0.45454545       0.00000000       0.00000000 </v>
   <v>       0.09090909       0.09090909       0.00000000 </v>
   <v>       0.18181818       0.09090909       0.00000000 </v>
   <v>       0.27272727       0.09090909       0.00000000 </v>
   <v>       0.36363636       0.09090909       0.00000000 </v>
   <v>       0.45454545       0.09090909       0.00000000 </v>
   <v>       0.18181818       0.18181818       0.00000000 </v>
   <v>       0.27272727       0.18181818       0.00000000 </v>
   <v>       0.36363636       0.18181818       0.00000000 </v>
   <v>       0.45454545       0.18181818       0.00000000 </v>
   <v>       0.27272727       0.27272727       0.00000000 </v>
   <v>       0.36363636       0.27272727       0.00000000 </v>
   <v>       0.45454545       0.27272727       0.00000000 </v>
   <v>       0.36363636       0.36363636       0.00000000 </v>
   <v>       0.45454545       0.36363636       0.00000000 </v>
   <v>       0.45454545       0.45454545       0.00000000 </v>
   <v>       0.09090909       0.09090909       0.09090909 </v>
   <v>       0.18181818       0.09090909       0.09090909 </v>
   <v>       0.27272727       0.09090909       0.09090909 </v>
   <v>       0.36363636       0.09090909       0.09090909 </v>
   <v>       0.45454545       0.09090909       0.09090909 </v>
   <v>       0.18181818       0.18181818       0.09090909 </v>
   <v>       0.27272727       0.18181818       0.09090909 </v>
   <v>       0.36363636       0.18181818       0.09090909 </v>
   <v>       0.45454545       0.18181818       0.09090909 </v>
   <v>       0.27272727       0.27272727       0.09090909 </v>
   <v>       0.36363636       0.27272727       0.09090909 </v>
   <v>       0.45454545       0.27272727       0.09090909 </v>
   <v>       0.36363636       0.36363636       0.09090909 </v>
   <v>       0.45454545       0.36363636       0.09090909 </v>
   <v>       0.45454545       0.45454545       0.09090909 </v>
   <v>       0.18181818       0.18181818       0.18181818 </v>
   <v>       0.27272727       0.18181818       0.18181818 </v>
   <v>       0.36363636       0.18181818       0.18181818 </v>
   <v>       0.45454545       0.18181818       0.18181818 </v>
   <v>       0.27272727       0.27272727       0.18181818 </v>
   <v>       0.36363636       0.27272727       0.18181818 </v>
   <v>       0.45454545       0.27272727       0.18181818 </v>
   <v>       0.36363636       0.36363636       0.18181818 </v>
   <v>       0.45454545       0.36363636       0.18181818 </v>
   <v>       0.45454545       0.45454545       0.18181818 </v>
   <v>       0.27272727       0.27272727       0.27272727 </v>
   <v>       0.36363636       0.27272727       0.27272727 </v>
   <v>       0.45454545       0.27272727       0.27272727 </v>
   <v>       0.36363636       0.36363636       0.27272727 </v>
   <v>       0.45454545       0.36363636       0.27272727 </v>
   <v>       0.45454545       0.45454545       0.27272727 </v>
   <v>       0.36363636       0.36363636       0.36363636 </v>
   <v>       0.45454545       0.36363636       0.36363636 </v>
   <v>       0.45454545       0.45454545       0.36363636 </v>
   <v>       0.45454545       0.45454545       0.45454545 </v>
  </varray>
  <varray name="weights" >
   <v>       0.00075131 </v>
   <v>       0.00450789 </v>
   <v>       0.00450789 </v>
   <v>       0.00450789 </v>
   <v>       0.00450789 </v>
   <v>       0.00450789 </v>
   <v>       0.00901578 </v>
   <v>       0.01803156 </v>
   <v>       0.01803156 </v>
   <v>       0.01803156 </v>
   <v>       0.01803156 </v>
   <v>       0.00901578 </v>
   <v>       0.01803156 </v>
   <v>       0.01803156 </v>
   <v>       0.01803156 </v>
   <v>       0.00901578 </v>
   <v>       0.01803156 </v>
   <v>       0.01803156 </v>
   <v>       0.00901578 </v>
   <v>       0.01803156 </v>
   <v>       0.00901578 </v>
   <v>       0.00601052 </v>
   <v>       0.01803156 </v>
   <v>       0.01803156 </v>
   <v>       0.01803156 </v>
   <v>       0.01803156 </v>
   <v>       0.01803156 </v>
   <v>       0.03606311 </v>
   <v>       0.03606311 </v>
   <v>       0.03606311 </v>
   <v>       0.01803156 </v>
   <v>       0.03606311 </v>
   <v>       0.03606311 </v>
   <v>       0.01803156 </v>
   <v>       0.03606311 </v>
   <v>       0.01803156 </v>
   <v>       0.00601052 </v>
   <v>       0.01803156 </v>
   <v>       0.01803156 </v>
   <v>       0.01803156 </v>
   <v>       0.01803156 </v>
   <v>       0.03606311 </v>
   <v>       0.03606311 </v>
   <v>       0.01803156 </v>
   <v>       0.03606311 </v>
   <v>       0.01803156 </v>
   <v>       0.00601052 </v>
   <v>       0.01803156 </v>
   <v>       0.01803156 </v>
   <v>       0.01803156 </v>
   <v>       0.03606311 </v>
   <v>       0.01803156 </v>
   <v>       0.00601052 </v>
   <v>       0.01803156 </v>
   <v>       0.01803156 </v>
   <v>       0.00601052 </v>
  </varray>
 </kpoints>
 <parameters>
  <separator name="general" >
   <i type="string" name="SYSTEM">unknown system</i>
   <i type="logical" name="LCOMPAT"> F  </i>
  </separator>
  <separator name="electronic" >
   <i type="string" name="PREC">accura</i>
   <i name="ENMAX">    520.00000000</i>
   <i name="ENAUG">    377.42100000</i>
   <i name="EDIFF">      0.00001000</i>
   <i type="int" name="IALGO">    38</i>
   <i type="int" name="IWAVPR">    10</i>
   <i type="int" name="NBANDS">    18</i>
   <i type="int" name="NBANDSLOW">    -1</i>
   <i type="int" name="NBANDSHIGH">    -1</i>
   <i name="NELECT">     22.00000000</i>
   <i type="int" name="TURBO">     0</i>
   <i type="int" name="IRESTART">     0</i>
   <i type="int" name="NREBOOT">     0</i>
   <i type="int" name="NMIN">     0</i>
   <i name="EREF">      0.00000000</i>
   <separator name="electronic smearing" >
    <i type="int" name="ISMEAR">     1</i>
    <i name="SIGMA">      0.10000000</i>
    <i name="KSPACING">      0.20000000</i>
    <i type="logical" name="KGAMMA"> T  </i>
    <i type="logical" name="KBLOWUP"> T  </i>
   </separator>
   <separator name="electronic projectors" >
    <i type="logical" name="LREAL"> T  </i>
    <v name="ROPT">     -0.00025000</v>
    <i type="int" name="LMAXPAW">  -100</i>
    <i type="int" name="LMAXMIX">     2</i>
    <i type="logical" name="NLSPLINE"> F  </i>
   </separator>
   <separator name="electronic startup" >
    <i type="int" name="ISTART">     0</i>
    <i type="int" name="ICHARG">     2</i>
    <i type="int" name="INIWAV">     1</i>
   </separator>
   <separator name="electronic spin" >
    <i type="int" name="ISPIN">     1</i>
    <i type="logical" name="LNONCOLLINEAR"> F  </i>
    <v name="MAGMOM">      1.00000000      1.00000000</v>
    <i name="NUPDOWN">     -1.00000000</i>
    <i type="logical" name="LSORBIT"> F  </i>
    <v name="SAXIS">      0.00000000      0.00000000      1.00000000</v>
    <i type="logical" name="LSPIRAL"> F  </i>
    <v name="QSPIRAL">      0.00000000      0.00000000      0.00000000</v>
    <i type="logical" name="LZEROZ"> F  </i>
   </separator>
   <separator name="electronic exchange-correlation" >
    <i type="logical" name="LASPH"> T  </i>
    <i type="logical" name="LMETAGGA"> F  </i>
   </separator>
   <separator name="electronic convergence" >
    <i type="int" name="NELM">   400</i>
    <i type="int" name="NELMDL">    -5</i>
    <i type="int" name="NELMIN">     2</i>
    <i name="ENINI">    520.00000000</i>
    <separator name="electronic convergence detail" >
     <i type="logical" name="LDIAG"> T  </i>
     <i type="logical" name="LSUBROT"> F  </i>
     <i name="WEIMIN">      0.00000000</i>
     <i name="EBREAK">      0.00000014</i>
     <i name="DEPER">      0.30000000</i>
     <i type="int" name="NRMM">     4</i>
     <i name="TIME">      0.40000000</i>
    </separator>
   </separator>
   <separator name="electronic mixer" >
    <i name="AMIX">      0.40000000</i>
    <i name="BMIX">      1.00000000</i>
    <i name="AMIN">      0.10000000</i>
    <i name="AMIX_MAG">      1.60000000</i>
    <i name="BMIX_MAG">      1.00000000</i>
    <separator name="electronic mixer details" >
     <i type="int" name="IMIX">     4</i>
     <i type="logical" name="MIXFIRST"> F  </i>
     <i type="int" name="MAXMIX">   -45</i>
     <i name="WC">    100.00000000</i>
     <i type="int" name="INIMIX">     1</i>
     <i type="int" name="MIXPRE">     1</i>
     <i type="int" name="MREMOVE">     5</i>
    </separator>
   </separator>
   <separator name="electronic dipolcorrection" >
    <i type="logical" name="LDIPOL"> F  </i>
    <i type="logical" name="LMONO"> F  </i>
    <i type="int" name="IDIPOL">     0</i>
    <i name="EPSILON">      1.00000000</i>
    <v name="DIPOL">   -100.00000000   -100.00000000   -100.00000000</v>
    <i name="EFIELD">      0.00000000</i>
   </separator>
  </separator>
  <separator name="grids" >
   <i type="int" name="NGX">    24</i>
   <i type="int" name="NGY">    24</i>
   <i type="int" name="NGZ">    24</i>
   <i type="int" name="NGXF">    48</i>
   <i type="int" name="NGYF">    48</i>
   <i type="int" name="NGZF">    48</i>
   <i type="logical" name="ADDGRID"> F  </i>
  </separator>
  <separator name="ionic" >
   <i type="int" name="NSW">     0</i>
   <i type="int" name="IBRION">    -1</i>
   <i type="int" name="MDALGO">     0</i>
   <i type="int" name="ISIF">     2</i>
   <i name="PSTRESS">      0.00000000</i>
   <i name="EDIFFG">      0.00010000</i>
   <i type="int" name="NFREE">     0</i>
   <i name="POTIM">      0.50000000</i>
   <i name="SMASS">     -3.00000000</i>
   <i name="SCALEE">      1.00000000</i>
  </separator>
  <separator name="ionic md" >
   <i name="TEBEG">      0.00010000</i>
   <i name="TEEND">      0.00010000</i>
   <i type="int" name="NBLOCK">     1</i>
   <i type="int" name="KBLOCK">     1</i>
   <i type="int" name="NPACO">   256</i>
   <i name="APACO">     10.00000000</i>
  </separator>
  <separator name="symmetry" >
   <i type="int" name="ISYM">     2</i>
   <i name="SYMPREC">      0.00001000</i>
  </separator>
  <separator name="dos" >
   <i type="int" name="LORBIT">     0</i>
   <v name="RWIGS">     -1.00000000</v>
   <i type="int" name="NEDOS">   301</i>
   <i name="EMIN">     10.00000000</i>
   <i name="EMAX">    -10.00000000</i>
   <i name="EFERMI">      0.00000000</i>
  </separator>
  <separator name="writing" >
   <i type="int" name="NWRITE">     2</i>
   <i type="logical" name="LWAVE"> F  </i>
   <i type="logical" name="LDOWNSAMPLE"> F  </i>
   <i type="logical" name="LCHARG"> F  </i>
   <i type="logical" name="LPARD"> F  </i>
   <i type="logical" name="LVTOT"> F  </i>
   <i type="logical" name="LVHAR"> F  </i>
   <i type="logical" name="LELF"> F  </i>
   <i type="logical" name="LOPTICS"> F  </i>
   <v name="STM">      0.00000000      0.00000000      0.00000000      0.00000000      0.00000000      0.00000000      0.00000000</v>
  </separator>
  <separator name="performance" >
   <i type="int" name="NPAR">     6</i>
   <i type="int" name="NSIM">     4</i>
   <i type="int" name="NBLK">    -1</i>
   <i type="logical" name="LPLANE"> T  </i>
   <i type="logical" name="LSCALAPACK"> T  </i>
   <i type="logical" name="LSCAAWARE"> T  </i>
   <i type="logical" name="LSCALU"> F  </i>
   <i type="logical" name="LASYNC"> F  </i>
   <i type="logical" name="LORBITALREAL"> F  </i>
  </separator>
  <separator name="miscellaneous" >
   <i type="int" name="IDIOT">     3</i>
   <i type="int" name="PHON_NSTRUCT">    -1</i>
   <i type="logical" name="LMUSIC"> F  </i>
   <v name="POMASS">    180.94800000</v>
   <v name="DARWINR">      0.00000000</v>
   <v name="DARWINV">      1.00000000</v>
   <i type="logical" name="LCORR"> T  </i>
  </separator>
  <i type="logical" name="GGA_COMPAT"> T  </i>
  <i type="logical" name="LBERRY"> F  </i>
  <i type="int" name="ICORELEVEL">     0</i>
  <i type="logical" name="LDAU"> F  </i>
  <i type="int" name="I_CONSTRAINED_M">     0</i>
  <separator name="electronic exchange-correlation" >
   <i type="string" name="GGA">--</i>
   <i type="int" name="VOSKOWN">     0</i>
   <i type="logical" name="LHFCALC"> F  </i>
   <i type="string" name="PRECFOCK"></i>
   <i type="logical" name="LSYMGRAD"> F  </i>
   <i type="logical" name="LHFONE"> F  </i>
   <i type="logical" name="LRHFCALC"> F  </i>
   <i type="logical" name="LTHOMAS"> F  </i>
   <i type="logical" name="LMODELHF"> F  </i>
   <i type="logical" name="LFOCKACE"> F  </i>
   <i name="ENCUT4O">     -1.00000000</i>
   <i type="int" name="EXXOEP">     0</i>
   <i type="int" name="FOURORBIT">     0</i>
   <i name="AEXX">      0.00000000</i>
   <i name="HFALPHA">      0.00000000</i>
   <i name="MCALPHA">      0.00000000</i>
   <i name="ALDAX">      1.00000000</i>
   <i name="AGGAX">      1.00000000</i>
   <i name="ALDAC">      1.00000000</i>
   <i name="AGGAC">      1.00000000</i>
   <i type="int" name="NKREDX">     1</i>
   <i type="int" name="NKREDY">     1</i>
   <i type="int" name="NKREDZ">     1</i>
   <i type="logical" name="SHIFTRED"> F  </i>
   <i type="logical" name="ODDONLY"> F  </i>
   <i type="logical" name="EVENONLY"> F  </i>
   <i type="int" name="LMAXFOCK">     0</i>
   <i type="int" name="NMAXFOCKAE">     0</i>
   <i type="logical" name="LFOCKAEDFT"> F  </i>
   <i name="HFSCREEN">      0.00000000</i>
   <i name="HFSCREENC">      0.00000000</i>
   <i type="int" name="NBANDSGWLOW">     0</i>
  </separator>
  <separator name="vdW DFT" >
   <i type="logical" name="LUSE_VDW"> F  </i>
   <i name="Zab_VDW">     -0.84910000</i>
   <i name="PARAM1">      0.12340000</i>
   <i name="PARAM2">      1.00000000</i>
   <i name="PARAM3">      0.00000000</i>
  </separator>
  <separator name="model GW" >
   <i type="int" name="MODEL_GW">     0</i>
   <i name="MODEL_EPS0">      8.01305445</i>
   <i name="MODEL_ALPHA">      1.00000000</i>
  </separator>
  <separator name="linear response parameters" >
   <i type="logical" name="LEPSILON"> F  </i>
   <i type="logical" name="LRPA"> F  </i>
   <i type="logical" name="LNABLA"> F  </i>
   <i type="logical" name="LVEL"> F  </i>
   <i name="CSHIFT">      0.10000000</i>
   <i name="OMEGAMAX">     -1.00000000</i>
   <i name="DEG_THRESHOLD">      0.00200000</i>
   <i name="RTIME">     -0.10000000</i>
   <i name="WPLASMAI">      0.00000000</i>
   <v name="DFIELD">      0.00000000      0.00000000      0.00000000</v>
   <v name="WPLASMA">      0.00000000      0.00000000      0.00000000      0.00000000      0.00000000      0.00000000      0.00000000      0.00000000      0.00000000</v>
  </separator>
  <separator name="orbital magnetization" >
   <i type="logical" name="NUCIND"> F  </i>
   <v name="MAGPOS">      0.00000000      0.00000000      0.00000000</v>
   <i type="logical" name="LNICSALL"> T  </i>
   <i type="logical" name="ORBITALMAG"> F  </i>
   <i type="logical" name="LMAGBLOCH"> F  </i>
   <i type="logical" name="LCHIMAG"> F  </i>
   <i type="logical" name="LGAUGE"> T  </i>
   <i type="int" name="MAGATOM">     0</i>
   <v name="MAGDIPOL">      0.00000000      0.00000000      0.00000000</v>
   <v name="AVECCONST">      0.00000000      0.00000000      0.00000000</v>
  </separator>
  <separator name="response functions" >
   <i type="logical" name="LFINITE_TEMPERATURE"> F  </i>
   <i type="logical" name="LADDER"> F  </i>
   <i type="logical" name="LRPAFORCE"> F  </i>
   <i type="logical" name="LFXC"> F  </i>
   <i type="logical" name="LHARTREE"> T  </i>
   <i type="int" name="IBSE">     0</i>
   <v type="int" name="KPOINT">    -1     0     0     0</v>
   <i type="logical" name="LTCTC"> F  </i>
   <i type="logical" name="LTCTE"> F  </i>
   <i type="logical" name="LTETE"> F  </i>
   <i type="logical" name="LTRIPLET"> F  </i>
   <i type="logical" name="LFXCEPS"> F  </i>
   <i type="logical" name="LFXHEG"> F  </i>
   <i type="int" name="NATURALO">     2</i>
   <i type="logical" name="LHOLEGF"> F  </i>
   <i type="logical" name="L2ORDER"> F  </i>
   <i type="logical" name="LDMP1"> F  </i>
   <i type="logical" name="LMP2LT"> F  </i>
   <i type="logical" name="LSMP2LT"> F  </i>
   <i type="logical" name="LGWLF"> F  </i>
   <i name="ENCUTGW">     -2.00000000</i>
   <i name="ENCUTGWSOFT">     -2.00000000</i>
   <i name="ENCUTLF">     -1.00000000</i>
   <i type="logical" name="LESF_SPLINES"> F  </i>
   <i type="int" name="LMAXMP2">    -1</i>
   <i name="SCISSOR">      0.00000000</i>
   <i type="int" name="NOMEGA">     0</i>
   <i type="int" name="NOMEGAR">     0</i>
   <i type="int" name="NBANDSGW">    -1</i>
   <i type="int" name="NBANDSO">    -1</i>
   <i type="int" name="NBANDSV">    -1</i>
   <i type="int" name="NELMGW">     1</i>
   <i type="int" name="NELMHF">     1</i>
   <i type="int" name="DIM">     3</i>
   <i type="int" name="IESPILON">     4</i>
   <i type="int" name="ANTIRES">     0</i>
   <i name="OMEGAMAX">    -30.00000000</i>
   <i name="OMEGAMIN">    -30.00000000</i>
   <i name="OMEGATL">   -200.00000000</i>
   <i type="int" name="OMEGAGRID">     0</i>
   <i name="CSHIFT">     -0.10000000</i>
   <i type="logical" name="LSELFENERGY"> F  </i>
   <i type="logical" name="LSPECTRAL"> F  </i>
   <i type="logical" name="LSPECTRALGW"> F  </i>
   <i type="logical" name="LSINGLES"> F  </i>
   <i type="logical" name="LFERMIGW"> F  </i>
   <i type="logical" name="ODDONLYGW"> F  </i>
   <i type="logical" name="EVENONLYGW"> F  </i>
   <i type="int" name="NKREDLFX">     1</i>
   <i type="int" name="NKREDLFY">     1</i>
   <i type="int" name="NKREDLFZ">     1</i>
   <i type="int" name="MAXMEM">  2800</i>
   <i type="int" name="TELESCOPE">     0</i>
   <i type="int" name="NTAUPAR">    -1</i>
   <i type="int" name="NOMEGAPAR">    -1</i>
   <i name="DAMP_NEWTON">      0.80000001</i>
   <i name="LAMBDA">      1.00000000</i>
  </separator>
  <separator name="External order field" >
   <i name="OFIELD_KAPPA">      0.00000000</i>
   <v name="OFIELD_K">      0.00000000      0.00000000      0.00000000</v>
   <i name="OFIELD_Q6_NEAR">      0.00000000</i>
   <i name="OFIELD_Q6_FAR">      0.00000000</i>
   <i name="OFIELD_A">      0.00000000</i>
  </separator>
  <separator name="optional k-points parameters" >
   <i type="int" name="KPOINTS_OPT_MODE">     1</i>
   <i type="logical" name="LKPOINTS_OPT"> F  </i>
  </separator>
 </parameters>
 <atominfo>
  <atoms>       2 </atoms>
  <types>       1 </types>
  <array name="atoms" >
   <dimension dim="1">ion</dimension>
   <field type="string">element</field>
   <field type="int">atomtype</field>
   <set>
    <rc><c>Ta</c><c>   1</c></rc>
    <rc><c>Ta</c><c>   1</c></rc>
   </set>
  </array>
  <array name="atomtypes" >
   <dimension dim="1">type</dimension>
   <field type="int">atomspertype</field>
   <field type="string">element</field>
   <field>mass</field>
   <field>valence</field>
   <field type="string">pseudopotential</field>
   <set>
    <rc><c>   2</c><c>Ta</c><c>    180.94800000</c><c>     11.00000000</c><c>  PAW_PBE Ta_pv 07Sep2000               </c></rc>
   </set>
  </array>
 </atominfo>
 <structure name="initialpos" >
  <crystal>
   <varray name="basis" >
    <v>       2.98922734       0.00000000       0.00000000 </v>
    <v>       0.00000000       2.98922734       0.00000000 </v>
    <v>       0.00000000       0.00000000       2.98922734 </v>
   </varray>
   <i name="volume">     26.71018149 </i>
   <varray name="rec_basis" >
    <v>       0.33453461      -0.00000000       0.00000000 </v>
    <v>       0.00000000       0.33453461       0.00000000 </v>
    <v>      -0.00000000      -0.00000000       0.33453461 </v>
   </varray>
  </crystal>
  <varray name="positions" >
   <v>       0.00000000       0.00000000       0.00000000 </v>
   <v>       0.50000000       0.50000000       0.50000000 </v>
  </varray>
 </structure>
 <calculation>
  <scstep>
   <time name="dav">    0.37    0.70</time>
   <time name="total">    0.49    0.85</time>
   <energy>
    <i name="alphaZ">    343.31902554 </i>
    <i name="ewald">  -2121.25273453 </i>
    <i name="hartreedc">   -188.90082335 </i>
    <i name="XCdc">     50.13266184 </i>
    <i name="pawpsdc">   1641.89683898 </i>
    <i name="pawaedc">  -1608.88133722 </i>
    <i name="eentropy">      0.00084806 </i>
    <i name="bandstr">    -71.11473979 </i>
    <i name="atom">   2094.39351137 </i>
    <i name="e_fr_energy">    139.59325091 </i>
    <i name="e_wo_entrp">    139.59240285 </i>
    <i name="e_0_energy">    139.59296822 </i>
   </energy>
  </scstep>
  <scstep>
   <time name="dav">    0.32    0.34</time>
   <time name="total">    0.32    0.34</time>
   <energy>
    <i name="e_fr_energy">    -18.62034629 </i>
    <i name="e_wo_entrp">    -18.61981544 </i>
    <i name="e_0_energy">    -18.62016934 </i>
   </energy>
  </scstep>
  <scstep>
   <time name="dav">    0.30    0.31</time>
   <time name="total">    0.30    0.31</time>
   <energy>
    <i name="e_fr_energy">    -21.55966763 </i>
    <i name="e_wo_entrp">    -21.55992371 </i>
    <i name="e_0_energy">    -21.55975299 </i>
   </energy>
  </scstep>
  <scstep>
   <time name="dav">    0.29    0.31</time>
   <time name="total">    0.29    0.31</time>
   <energy>
    <i name="e_fr_energy">    -21.57360685 </i>
    <i name="e_wo_entrp">    -21.57388836 </i>
    <i name="e_0_energy">    -21.57370069 </i>
   </energy>
  </scstep>
  <scstep>
   <time name="dav">    0.29    0.31</time>
   <time name="total">    0.31    0.33</time>
   <energy>
    <i name="e_fr_energy">    -21.57369188 </i>
    <i name="e_wo_entrp">    -21.57397363 </i>
    <i name="e_0_energy">    -21.57378580 </i>
   </energy>
  </scstep>
  <scstep>
   <time name="dav">    0.29    0.29</time>
   <time name="total">    0.41    0.43</time>
   <energy>
    <i name="e_fr_energy">    -21.12179877 </i>
    <i name="e_wo_entrp">    -21.12263203 </i>
    <i name="e_0_energy">    -21.12207652 </i>
   </energy>
  </scstep>
  <scstep>
   <time name="dav">    0.30    0.30</time>
   <time name="total">    0.42    0.43</time>
   <energy>
    <i name="e_fr_energy">    -20.94230614 </i>
    <i name="e_wo_entrp">    -20.94239117 </i>
    <i name="e_0_energy">    -20.94233448 </i>
   </energy>
  </scstep>
  <scstep>
   <time name="dav">    0.29    0.29</time>
   <time name="total">    0.41    0.43</time>
   <energy>
    <i name="e_fr_energy">    -20.93998765 </i>
    <i name="e_wo_entrp">    -20.94004703 </i>
    <i name="e_0_energy">    -20.94000745 </i>
   </energy>
  </scstep>
  <scstep>
   <time name="dav">    0.29    0.29</time>
   <time name="total">    0.41    0.43</time>
   <energy>
    <i name="e_fr_energy">    -20.94001387 </i>
    <i name="e_wo_entrp">    -20.94006871 </i>
    <i name="e_0_energy">    -20.94003215 </i>
   </energy>
  </scstep>
  <scstep>
   <time name="dav">    0.22    0.22</time>
   <time name="total">    0.34    0.35</time>
   <energy>
    <i name="alphaZ">    343.31902554 </i>
    <i name="ewald">  -2121.25273453 </i>
    <i name="hartreedc">   -167.77456655 </i>
    <i name="XCdc">     49.10404914 </i>
    <i name="pawpsdc">   5524.02972444 </i>
    <i name="pawaedc">  -5498.13032903 </i>
    <i name="eentropy">      0.00005540 </i>
    <i name="bandstr">   -244.62874375 </i>
    <i name="atom">   2094.39351137 </i>
    <i name="e_fr_energy">    -20.94000798 </i>
    <i name="e_wo_entrp">    -20.94006338 </i>
    <i name="e_0_energy">    -20.94002644 </i>
   </energy>
  </scstep>
  <structure>
   <crystal>
    <varray name="basis" >
     <v>       2.98922734       0.00000000       0.00000000 </v>
     <v>       0.00000000       2.98922734       0.00000000 </v>
     <v>       0.00000000       0.00000000       2.98922734 </v>
    </varray>
    <i name="volume">     26.71018149 </i>
    <varray name="rec_basis" >
     <v>       0.33453461      -0.00000000       0.00000000 </v>
     <v>       0.00000000       0.33453461       0.00000000 </v>
     <v>      -0.00000000      -0.00000000       0.33453461 </v>
    </varray>
   </crystal>
   <varray name="positions" >
    <v>       0.00000000       0.00000000       0.00000000 </v>
    <v>       0.50000000       0.50000000       0.50000000 </v>
   </varray>
  </structure>
  <varray name="forces" >
   <v>       0.00000000       0.00000000       0.00000000 </v>
   <v>      -0.00000000      -0.00000000      -0.00000000 </v>
  </varray>
  <varray name="stress" >
   <v>    1113.13949220       0.00000000       0.00000000 </v>
   <v>       0.00000000    1113.13949220       0.00000000 </v>
   <v>       0.00000000       0.00000000    1113.13949220 </v>
  </varray>
  <energy>
   <i name="e_fr_energy">    -20.94000798 </i>
   <i name="e_wo_entrp">    -20.94006338 </i>
   <i name="e_0_energy">    -20.94002644 </i>
  </energy>
  <time name="totalsc">    4.12    4.65</time>
  <eigenvalues>
   <array>
    <dimension dim="1">band</dimension>
    <dimension dim="2">kpoint</dimension>
    <dimension dim="3">spin</dimension>
    <field>eigene</field>
    <field>occ</field>
    <set>
     <set comment="spin 1">
      <set comment="kpoint 1">
       <r>  -25.6104    1.0000 </r>
       <r>  -25.6104    1.0000 </r>
       <r>  -25.6104    1.0000 </r>
       <r>  -23.6432    1.0000 </r>
       <r>  -23.6432    1.0000 </r>
       <r>  -23.6432    1.0000 </r>
       <r>   -0.6832    1.0000 </r>
       <r>    2.1766    1.0000 </r>
       <r>    2.1766    1.0000 </r>
       <r>    8.7888   -0.0000 </r>
       <r>    8.7888   -0.0000 </r>
       <r>    8.7888   -0.0000 </r>
       <r>   13.2240    0.0000 </r>
       <r>   13.2240    0.0000 </r>
       <r>   17.7779    0.0000 </r>
       <r>   17.7779    0.0000 </r>
       <r>   17.7779    0.0000 </r>
       <r>   20.2213    0.0000 </r>
      </set>
      <set comment="kpoint 2">
       <r>  -25.6228    1.0000 </r>
       <r>  -25.5710    1.0000 </r>
       <r>  -25.5710    1.0000 </r>
       <r>  -23.7461    1.0000 </r>
       <r>  -23.6828    1.0000 </r>
       <r>  -23.6828    1.0000 </r>
       <r>   -0.4032    1.0000 </r>
       <r>    2.3060    1.0000 </r>
       <r>    2.4364    1.0000 </r>
       <r>    8.7510   -0.0000 </r>
       <r>    8.7510   -0.0000 </r>
       <r>    8.9096   -0.0000 </r>
       <r>   12.6948    0.0000 </r>
       <r>   13.3953    0.0000 </r>
       <r>   16.3503    0.0000 </r>
       <r>   16.3503    0.0000 </r>
       <r>   17.4593    0.0000 </r>
       <r>   19.5494    0.0000 </r>
      </set>
      <set comment="kpoint 3">
       <r>  -25.6466    1.0000 </r>
       <r>  -25.4559    1.0000 </r>
       <r>  -25.4559    1.0000 </r>
       <r>  -24.0256    1.0000 </r>
       <r>  -23.7989    1.0000 </r>
       <r>  -23.7989    1.0000 </r>
       <r>    0.3890    1.0000 </r>
       <r>    2.6930    1.0000 </r>
       <r>    3.1522    1.0000 </r>
       <r>    8.6856   -0.0000 </r>
       <r>    8.6856   -0.0000 </r>
       <r>    9.2698   -0.0000 </r>
       <r>   11.4026    0.0000 </r>
       <r>   13.8856    0.0000 </r>
       <r>   14.4053    0.0000 </r>
       <r>   14.4053    0.0000 </r>
       <r>   16.6044    0.0000 </r>
       <r>   18.0636    0.0000 </r>
      </set>
      <set comment="kpoint 4">
       <r>  -25.6477    1.0000 </r>
       <r>  -25.2737    1.0000 </r>
       <r>  -25.2737    1.0000 </r>
       <r>  -24.4091    1.0000 </r>
       <r>  -23.9823    1.0000 </r>
       <r>  -23.9823    1.0000 </r>
       <r>    1.5618    1.0000 </r>
       <r>    3.3338    1.0000 </r>
       <r>    4.1106    1.0000 </r>
       <r>    8.7010   -0.0000 </r>
       <r>    8.7010   -0.0000 </r>
       <r>    9.8079   -0.0000 </r>
       <r>    9.8622   -0.0000 </r>
       <r>   12.6808    0.0000 </r>
       <r>   12.6808    0.0000 </r>
       <r>   14.5977    0.0000 </r>
       <r>   15.4285    0.0000 </r>
       <r>   16.5244    0.0000 </r>
      </set>
      <set comment="kpoint 5">
       <r>  -25.5859    1.0000 </r>
       <r>  -25.0387    1.0000 </r>
       <r>  -25.0387    1.0000 </r>
       <r>  -24.8128    1.0000 </r>
       <r>  -24.2186    1.0000 </r>
       <r>  -24.2186    1.0000 </r>
       <r>    2.9175    1.0000 </r>
       <r>    4.2210    1.0000 </r>
       <r>    4.8907    1.0000 </r>
       <r>    8.1875    0.6154 </r>
       <r>    8.9052   -0.0000 </r>
       <r>    8.9052   -0.0000 </r>
       <r>   10.6735   -0.0000 </r>
       <r>   11.2558    0.0000 </r>
       <r>   11.2558    0.0000 </r>
       <r>   14.1315    0.0000 </r>
       <r>   15.2738    0.0000 </r>
       <r>   15.4790    0.0000 </r>
      </set>
      <set comment="kpoint 6">
       <r>  -25.4297    1.0000 </r>
       <r>  -25.1673    1.0000 </r>
       <r>  -24.7696    1.0000 </r>
       <r>  -24.7696    1.0000 </r>
       <r>  -24.4885    1.0000 </r>
       <r>  -24.4885    1.0000 </r>
       <r>    4.1808    1.0000 </r>
       <r>    4.9596    1.0000 </r>
       <r>    5.3422    1.0000 </r>
       <r>    6.6765    1.0000 </r>
       <r>    9.3748   -0.0000 </r>
       <r>    9.3748   -0.0000 </r>
       <r>   10.1528   -0.0000 </r>
       <r>   10.1528   -0.0000 </r>
       <r>   11.6820    0.0000 </r>
       <r>   12.8531    0.0000 </r>
       <r>   15.2610    0.0000 </r>
       <r>   15.4795    0.0000 </r>
      </set>
      <set comment="kpoint 7">
       <r>  -25.6938    1.0000 </r>
       <r>  -25.5328    1.0000 </r>
       <r>  -25.4746    1.0000 </r>
       <r>  -23.9178    1.0000 </r>
       <r>  -23.7204    1.0000 </r>
       <r>  -23.6468    1.0000 </r>
       <r>   -0.1380    1.0000 </r>
       <r>    2.4928    1.0000 </r>
       <r>    2.6341    1.0000 </r>
       <r>    8.4302   -0.0028 </r>
       <r>    8.6737   -0.0000 </r>
       <r>    9.3255   -0.0000 </r>
       <r>   12.6538    0.0000 </r>
       <r>   13.2122    0.0000 </r>
       <r>   15.0895    0.0000 </r>
       <r>   15.2160    0.0000 </r>
       <r>   17.8905    0.0000 </r>
       <r>   20.2554    0.0000 </r>
      </set>
      <set comment="kpoint 8">
       <r>  -25.7632    1.0000 </r>
       <r>  -25.4210    1.0000 </r>
       <r>  -25.3185    1.0000 </r>
       <r>  -24.2374    1.0000 </r>
       <r>  -23.8302    1.0000 </r>
       <r>  -23.7040    1.0000 </r>
       <r>    0.6087    1.0000 </r>
       <r>    2.8846    1.0000 </r>
       <r>    3.3279    1.0000 </r>
       <r>    8.1563    0.8418 </r>
       <r>    8.5008   -0.0001 </r>
       <r>    9.9225   -0.0000 </r>
       <r>   11.7308    0.0000 </r>
       <r>   13.3304    0.0000 </r>
       <r>   13.4758    0.0000 </r>
       <r>   13.6372    0.0000 </r>
       <r>   17.4761    0.0000 </r>
       <r>   19.1113    0.0000 </r>
      </set>
      <set comment="kpoint 9">
       <r>  -25.7930    1.0000 </r>
       <r>  -25.2445    1.0000 </r>
       <r>  -25.1160    1.0000 </r>
       <r>  -24.6299    1.0000 </r>
       <r>  -24.0044    1.0000 </r>
       <r>  -23.8529    1.0000 </r>
       <r>    1.7021    1.0000 </r>
       <r>    3.4908    1.0000 </r>
       <r>    4.2753    1.0000 </r>
       <r>    8.0510    1.0275 </r>
       <r>    8.2736    0.0325 </r>
       <r>   10.5263   -0.0000 </r>
       <r>   10.6647   -0.0000 </r>
       <r>   11.7182    0.0000 </r>
       <r>   11.9786    0.0000 </r>
       <r>   14.4101    0.0000 </r>
       <r>   16.4205    0.0000 </r>
       <r>   17.4420    0.0000 </r>
      </set>
      <set comment="kpoint 10">
       <r>  -25.7523    1.0000 </r>
       <r>  -25.0270    1.0000 </r>
       <r>  -25.0173    1.0000 </r>
       <r>  -24.8725    1.0000 </r>
       <r>  -24.2297    1.0000 </r>
       <r>  -24.0688    1.0000 </r>
       <r>    2.9457    1.0000 </r>
       <r>    4.2876    1.0000 </r>
       <r>    5.0317    1.0000 </r>
       <r>    7.7024    1.0000 </r>
       <r>    8.1804    0.6725 </r>
       <r>    9.8203   -0.0000 </r>
       <r>   10.3679   -0.0000 </r>
       <r>   10.9484    0.0000 </r>
       <r>   11.5706    0.0000 </r>
       <r>   15.1434    0.0000 </r>
       <r>   15.1526    0.0000 </r>
       <r>   16.1038    0.0000 </r>
      </set>
      <set comment="kpoint 11">
       <r>  -25.6141    1.0000 </r>
       <r>  -25.3680    1.0000 </r>
       <r>  -24.7579    1.0000 </r>
       <r>  -24.6027    1.0000 </r>
       <r>  -24.4879    1.0000 </r>
       <r>  -24.3269    1.0000 </r>
       <r>    4.0932    1.0000 </r>
       <r>    4.7794    1.0000 </r>
       <r>    5.5488    1.0000 </r>
       <r>    6.6295    1.0000 </r>
       <r>    8.5948   -0.0000 </r>
       <r>    9.3219   -0.0000 </r>
       <r>    9.9296   -0.0000 </r>
       <r>   10.3600   -0.0000 </r>
       <r>   12.6396    0.0000 </r>
       <r>   13.8485    0.0000 </r>
       <r>   15.4732    0.0000 </r>
       <r>   15.5088    0.0000 </r>
      </set>
      <set comment="kpoint 12">
       <r>  -25.9115    1.0000 </r>
       <r>  -25.3195    1.0000 </r>
       <r>  -25.0982    1.0000 </r>
       <r>  -24.6108    1.0000 </r>
       <r>  -23.9225    1.0000 </r>
       <r>  -23.6566    1.0000 </r>
       <r>    1.2112    1.0000 </r>
       <r>    3.2812    1.0000 </r>
       <r>    3.9555    1.0000 </r>
       <r>    7.5858    1.0000 </r>
       <r>    8.1818    0.6615 </r>
       <r>   10.8836   -0.0000 </r>
       <r>   11.6963    0.0000 </r>
       <r>   12.0040    0.0000 </r>
       <r>   12.2098    0.0000 </r>
       <r>   13.2749    0.0000 </r>
       <r>   18.2022    0.0000 </r>
       <r>   20.1897    0.0000 </r>
      </set>
      <set comment="kpoint 13">
       <r>  -26.0113    1.0000 </r>
       <r>  -25.1598    1.0000 </r>
       <r>  -25.0248    1.0000 </r>
       <r>  -24.8515    1.0000 </r>
       <r>  -24.0702    1.0000 </r>
       <r>  -23.7137    1.0000 </r>
       <r>    2.0435    1.0000 </r>
       <r>    3.7258    1.0000 </r>
       <r>    4.9182    1.0000 </r>
       <r>    7.2376    1.0000 </r>
       <r>    7.9455    1.0009 </r>
       <r>   10.1958   -0.0000 </r>
       <r>   10.8882   -0.0000 </r>
       <r>   11.7160    0.0000 </r>
       <r>   11.9411    0.0000 </r>
       <r>   13.9245    0.0000 </r>
       <r>   17.8700    0.0000 </r>
       <r>   19.0200    0.0000 </r>
      </set>
      <set comment="kpoint 14">
       <r>  -26.0287    1.0000 </r>
       <r>  -25.4151    1.0000 </r>
       <r>  -24.9558    1.0000 </r>
       <r>  -24.5881    1.0000 </r>
       <r>  -24.2633    1.0000 </r>
       <r>  -23.8596    1.0000 </r>
       <r>    2.9122    1.0000 </r>
       <r>    4.1051    1.0000 </r>
       <r>    5.7933    1.0000 </r>
       <r>    7.1746    1.0000 </r>
       <r>    7.6753    1.0000 </r>
       <r>    8.9565   -0.0000 </r>
       <r>   10.5343   -0.0000 </r>
       <r>   11.1901    0.0000 </r>
       <r>   13.0871    0.0000 </r>
       <r>   14.8069    0.0000 </r>
       <r>   16.8560    0.0000 </r>
       <r>   17.3567    0.0000 </r>
      </set>
      <set comment="kpoint 15">
       <r>  -25.9384    1.0000 </r>
       <r>  -25.7304    1.0000 </r>
       <r>  -24.7251    1.0000 </r>
       <r>  -24.4876    1.0000 </r>
       <r>  -24.3212    1.0000 </r>
       <r>  -24.0705    1.0000 </r>
       <r>    3.6558    1.0000 </r>
       <r>    4.1180    1.0000 </r>
       <r>    6.4579    1.0000 </r>
       <r>    7.1357    1.0000 </r>
       <r>    7.4329    1.0000 </r>
       <r>    8.0281    1.0171 </r>
       <r>   10.8605   -0.0000 </r>
       <r>   11.0748    0.0000 </r>
       <r>   14.3172    0.0000 </r>
       <r>   15.4178    0.0000 </r>
       <r>   15.6020    0.0000 </r>
       <r>   16.0832    0.0000 </r>
      </set>
      <set comment="kpoint 16">
       <r>  -26.1848    1.0000 </r>
       <r>  -25.4394    1.0000 </r>
       <r>  -25.0279    1.0000 </r>
       <r>  -24.5755    1.0000 </r>
       <r>  -24.1772    1.0000 </r>
       <r>  -23.6697    1.0000 </r>
       <r>    2.4144    1.0000 </r>
       <r>    3.7925    1.0000 </r>
       <r>    6.0016    1.0000 </r>
       <r>    6.6597    1.0000 </r>
       <r>    8.0801    1.0354 </r>
       <r>    8.8090   -0.0000 </r>
       <r>   10.2695   -0.0000 </r>
       <r>   12.6798    0.0000 </r>
       <r>   13.3063    0.0000 </r>
       <r>   13.5770    0.0000 </r>
       <r>   18.6336    0.0000 </r>
       <r>   19.5220    0.0000 </r>
      </set>
      <set comment="kpoint 17">
       <r>  -26.2705    1.0000 </r>
       <r>  -25.8080    1.0000 </r>
       <r>  -24.8618    1.0000 </r>
       <r>  -24.3207    1.0000 </r>
       <r>  -24.3076    1.0000 </r>
       <r>  -23.7240    1.0000 </r>
       <r>    2.7263    1.0000 </r>
       <r>    3.6521    1.0000 </r>
       <r>    6.3927    1.0000 </r>
       <r>    7.1006    1.0000 </r>
       <r>    7.6953    1.0000 </r>
       <r>    8.4252   -0.0034 </r>
       <r>   10.5274   -0.0000 </r>
       <r>   12.5429    0.0000 </r>
       <r>   14.3331    0.0000 </r>
       <r>   14.6988    0.0000 </r>
       <r>   18.2269    0.0000 </r>
       <r>   18.3469    0.0000 </r>
      </set>
      <set comment="kpoint 18">
       <r>  -26.2409    1.0000 </r>
       <r>  -26.0843    1.0000 </r>
       <r>  -24.6773    1.0000 </r>
       <r>  -24.4917    1.0000 </r>
       <r>  -24.0634    1.0000 </r>
       <r>  -23.8619    1.0000 </r>
       <r>    3.0269    1.0000 </r>
       <r>    3.3561    1.0000 </r>
       <r>    6.4713    1.0000 </r>
       <r>    6.9076    1.0000 </r>
       <r>    7.9073    1.0001 </r>
       <r>    8.4063   -0.0068 </r>
       <r>   11.5071    0.0000 </r>
       <r>   12.2832    0.0000 </r>
       <r>   15.2335    0.0000 </r>
       <r>   16.0766    0.0000 </r>
       <r>   16.5329    0.0000 </r>
       <r>   17.3588    0.0000 </r>
      </set>
      <set comment="kpoint 19">
       <r>  -26.4251    1.0000 </r>
       <r>  -26.1385    1.0000 </r>
       <r>  -24.7466    1.0000 </r>
       <r>  -24.4022    1.0000 </r>
       <r>  -24.0602    1.0000 </r>
       <r>  -23.6822    1.0000 </r>
       <r>    2.5412    1.0000 </r>
       <r>    3.1381    1.0000 </r>
       <r>    5.9298    1.0000 </r>
       <r>    6.7222    1.0000 </r>
       <r>    8.5582   -0.0000 </r>
       <r>    9.5185   -0.0000 </r>
       <r>   11.1050    0.0000 </r>
       <r>   13.4081    0.0000 </r>
       <r>   14.1533    0.0000 </r>
       <r>   16.2732    0.0000 </r>
       <r>   17.8047    0.0000 </r>
       <r>   19.0570    0.0000 </r>
      </set>
      <set comment="kpoint 20">
       <r>  -26.4611    1.0000 </r>
       <r>  -26.3641    1.0000 </r>
       <r>  -24.6235    1.0000 </r>
       <r>  -24.5052    1.0000 </r>
       <r>  -23.8630    1.0000 </r>
       <r>  -23.7321    1.0000 </r>
       <r>    2.5211    1.0000 </r>
       <r>    2.7282    1.0000 </r>
       <r>    5.8244    1.0000 </r>
       <r>    6.0903    1.0000 </r>
       <r>    9.6526   -0.0000 </r>
       <r>   10.0714   -0.0000 </r>
       <r>   12.2462    0.0000 </r>
       <r>   13.2352    0.0000 </r>
       <r>   14.9071    0.0000 </r>
       <r>   16.3521    0.0000 </r>
       <r>   17.6894    0.0000 </r>
       <r>   18.7397    0.0000 </r>
      </set>
      <set comment="kpoint 21">
       <r>  -26.5635    1.0000 </r>
       <r>  -26.5307    1.0000 </r>
       <r>  -24.5726    1.0000 </r>
       <r>  -24.5320    1.0000 </r>
       <r>  -23.7351    1.0000 </r>
       <r>  -23.6897    1.0000 </r>
       <r>    2.2805    1.0000 </r>
       <r>    2.3517    1.0000 </r>
       <r>    5.5368    1.0000 </r>
       <r>    5.6261    1.0000 </r>
       <r>   11.1804    0.0000 </r>
       <r>   11.4231    0.0000 </r>
       <r>   13.0310    0.0000 </r>
       <r>   13.5452    0.0000 </r>
       <r>   14.7377    0.0000 </r>
       <r>   15.4658    0.0000 </r>
       <r>   18.8931    0.0000 </r>
       <r>   19.3227    0.0000 </r>
      </set>
      <set comment="kpoint 22">
       <r>  -25.6530    1.0000 </r>
       <r>  -25.6530    1.0000 </r>
       <r>  -25.3341    1.0000 </r>
       <r>  -24.0734    1.0000 </r>
       <r>  -23.6883    1.0000 </r>
       <r>  -23.6883    1.0000 </r>
       <r>    0.1169    1.0000 </r>
       <r>    2.7539    1.0000 </r>
       <r>    2.7539    1.0000 </r>
       <r>    8.3451   -0.0303 </r>
       <r>    8.3451   -0.0303 </r>
       <r>    9.7546   -0.0000 </r>
       <r>   12.8667    0.0000 </r>
       <r>   12.8667    0.0000 </r>
       <r>   13.3754    0.0000 </r>
       <r>   16.4752    0.0000 </r>
       <r>   16.4752    0.0000 </r>
       <r>   21.9273    0.0000 </r>
      </set>
      <set comment="kpoint 23">
       <r>  -25.7704    1.0000 </r>
       <r>  -25.5339    1.0000 </r>
       <r>  -25.1459    1.0000 </r>
       <r>  -24.3943    1.0000 </r>
       <r>  -23.8098    1.0000 </r>
       <r>  -23.7106    1.0000 </r>
       <r>    0.8310    1.0000 </r>
       <r>    3.1104    1.0000 </r>
       <r>    3.4693    1.0000 </r>
       <r>    7.9784    1.0036 </r>
       <r>    8.1260    0.9771 </r>
       <r>   10.4776   -0.0000 </r>
       <r>   11.6610    0.0000 </r>
       <r>   11.9829    0.0000 </r>
       <r>   13.4538    0.0000 </r>
       <r>   14.5661    0.0000 </r>
       <r>   16.6091    0.0000 </r>
       <r>   20.5280    0.0000 </r>
      </set>
      <set comment="kpoint 24">
       <r>  -25.8389    1.0000 </r>
       <r>  -25.3452    1.0000 </r>
       <r>  -24.9314    1.0000 </r>
       <r>  -24.7815    1.0000 </r>
       <r>  -24.0017    1.0000 </r>
       <r>  -23.8158    1.0000 </r>
       <r>    1.8645    1.0000 </r>
       <r>    3.6932    1.0000 </r>
       <r>    4.3976    1.0000 </r>
       <r>    7.8088    1.0000 </r>
       <r>    7.8482    1.0000 </r>
       <r>   10.2564   -0.0000 </r>
       <r>   10.9294   -0.0000 </r>
       <r>   11.3367    0.0000 </r>
       <r>   12.8935    0.0000 </r>
       <r>   14.2694    0.0000 </r>
       <r>   15.7884    0.0000 </r>
       <r>   18.8656    0.0000 </r>
      </set>
      <set comment="kpoint 25">
       <r>  -25.8286    1.0000 </r>
       <r>  -25.1661    1.0000 </r>
       <r>  -25.1016    1.0000 </r>
       <r>  -24.6946    1.0000 </r>
       <r>  -24.2485    1.0000 </r>
       <r>  -23.9871    1.0000 </r>
       <r>    3.0200    1.0000 </r>
       <r>    4.4810    1.0000 </r>
       <r>    5.0321    1.0000 </r>
       <r>    7.2861    1.0000 </r>
       <r>    8.0307    1.0183 </r>
       <r>    9.3690   -0.0000 </r>
       <r>   10.1749   -0.0000 </r>
       <r>   11.5481    0.0000 </r>
       <r>   12.3279    0.0000 </r>
       <r>   14.8166    0.0000 </r>
       <r>   15.0549    0.0000 </r>
       <r>   17.2813    0.0000 </r>
      </set>
      <set comment="kpoint 26">
       <r>  -25.7152    1.0000 </r>
       <r>  -25.4899    1.0000 </r>
       <r>  -24.8223    1.0000 </r>
       <r>  -24.5298    1.0000 </r>
       <r>  -24.4466    1.0000 </r>
       <r>  -24.2042    1.0000 </r>
       <r>    4.0914    1.0000 </r>
       <r>    4.8734    1.0000 </r>
       <r>    5.4282    1.0000 </r>
       <r>    6.4336    1.0000 </r>
       <r>    8.4724   -0.0004 </r>
       <r>    8.9318   -0.0000 </r>
       <r>   10.0758   -0.0000 </r>
       <r>   10.5827   -0.0000 </r>
       <r>   13.3647    0.0000 </r>
       <r>   14.1432    0.0000 </r>
       <r>   15.5123    0.0000 </r>
       <r>   16.0478    0.0000 </r>
      </set>
      <set comment="kpoint 27">
       <r>  -25.8674    1.0000 </r>
       <r>  -25.5013    1.0000 </r>
       <r>  -24.9174    1.0000 </r>
       <r>  -24.7265    1.0000 </r>
       <r>  -23.8884    1.0000 </r>
       <r>  -23.7032    1.0000 </r>
       <r>    1.4379    1.0000 </r>
       <r>    3.5561    1.0000 </r>
       <r>    4.0454    1.0000 </r>
       <r>    7.4705    1.0000 </r>
       <r>    7.7895    1.0000 </r>
       <r>   10.0477   -0.0000 </r>
       <r>   11.4642    0.0000 </r>
       <r>   12.3894    0.0000 </r>
       <r>   13.2022    0.0000 </r>
       <r>   13.6485    0.0000 </r>
       <r>   16.7949    0.0000 </r>
       <r>   21.8345    0.0000 </r>
      </set>
      <set comment="kpoint 28">
       <r>  -25.9800    1.0000 </r>
       <r>  -25.3333    1.0000 </r>
       <r>  -25.1112    1.0000 </r>
       <r>  -24.6817    1.0000 </r>
       <r>  -24.0572    1.0000 </r>
       <r>  -23.7461    1.0000 </r>
       <r>    2.2631    1.0000 </r>
       <r>    4.0082    1.0000 </r>
       <r>    4.9684    1.0000 </r>
       <r>    7.1139    1.0000 </r>
       <r>    7.5710    1.0000 </r>
       <r>    8.8254   -0.0000 </r>
       <r>   11.8600    0.0000 </r>
       <r>   12.3105    0.0000 </r>
       <r>   12.6089    0.0000 </r>
       <r>   13.8920    0.0000 </r>
       <r>   16.4797    0.0000 </r>
       <r>   20.6170    0.0000 </r>
      </set>
      <set comment="kpoint 29">
       <r>  -26.0198    1.0000 </r>
       <r>  -25.4762    1.0000 </r>
       <r>  -25.1000    1.0000 </r>
       <r>  -24.4463    1.0000 </r>
       <r>  -24.2847    1.0000 </r>
       <r>  -23.8554    1.0000 </r>
       <r>    3.0976    1.0000 </r>
       <r>    4.3937    1.0000 </r>
       <r>    5.6446    1.0000 </r>
       <r>    6.8804    1.0000 </r>
       <r>    7.5860    1.0000 </r>
       <r>    8.2799    0.0138 </r>
       <r>   11.2836    0.0000 </r>
       <r>   11.3978    0.0000 </r>
       <r>   13.7771    0.0000 </r>
       <r>   14.7756    0.0000 </r>
       <r>   15.5854    0.0000 </r>
       <r>   18.9348    0.0000 </r>
      </set>
      <set comment="kpoint 30">
       <r>  -25.9528    1.0000 </r>
       <r>  -25.7679    1.0000 </r>
       <r>  -24.8305    1.0000 </r>
       <r>  -24.5503    1.0000 </r>
       <r>  -24.2209    1.0000 </r>
       <r>  -24.0189    1.0000 </r>
       <r>    3.8114    1.0000 </r>
       <r>    4.3315    1.0000 </r>
       <r>    6.0496    1.0000 </r>
       <r>    6.5275    1.0000 </r>
       <r>    7.8492    1.0000 </r>
       <r>    8.1380    0.9343 </r>
       <r>   11.0729    0.0000 </r>
       <r>   11.1054    0.0000 </r>
       <r>   14.5966    0.0000 </r>
       <r>   14.8949    0.0000 </r>
       <r>   15.7626    0.0000 </r>
       <r>   17.2506    0.0000 </r>
      </set>
      <set comment="kpoint 31">
       <r>  -26.1366    1.0000 </r>
       <r>  -25.4835    1.0000 </r>
       <r>  -25.2015    1.0000 </r>
       <r>  -24.4389    1.0000 </r>
       <r>  -24.1747    1.0000 </r>
       <r>  -23.7231    1.0000 </r>
       <r>    2.6855    1.0000 </r>
       <r>    4.0812    1.0000 </r>
       <r>    6.0360    1.0000 </r>
       <r>    6.5784    1.0000 </r>
       <r>    7.6794    1.0000 </r>
       <r>    7.7825    1.0000 </r>
       <r>   11.4346    0.0000 </r>
       <r>   12.6936    0.0000 </r>
       <r>   13.6349    0.0000 </r>
       <r>   14.0054    0.0000 </r>
       <r>   17.0975    0.0000 </r>
       <r>   21.2489    0.0000 </r>
      </set>
      <set comment="kpoint 32">
       <r>  -26.2277    1.0000 </r>
       <r>  -25.8216    1.0000 </r>
       <r>  -25.0057    1.0000 </r>
       <r>  -24.3433    1.0000 </r>
       <r>  -24.2164    1.0000 </r>
       <r>  -23.7664    1.0000 </r>
       <r>    2.9979    1.0000 </r>
       <r>    3.9080    1.0000 </r>
       <r>    6.3140    1.0000 </r>
       <r>    6.7632    1.0000 </r>
       <r>    7.5378    1.0000 </r>
       <r>    8.1014    1.0251 </r>
       <r>   11.1959    0.0000 </r>
       <r>   12.5424    0.0000 </r>
       <r>   14.3557    0.0000 </r>
       <r>   15.3879    0.0000 </r>
       <r>   16.6299    0.0000 </r>
       <r>   20.1332    0.0000 </r>
      </set>
      <set comment="kpoint 33">
       <r>  -26.2121    1.0000 </r>
       <r>  -26.0743    1.0000 </r>
       <r>  -24.7798    1.0000 </r>
       <r>  -24.5511    1.0000 </r>
       <r>  -24.0235    1.0000 </r>
       <r>  -23.8700    1.0000 </r>
       <r>    3.2672    1.0000 </r>
       <r>    3.5842    1.0000 </r>
       <r>    6.3178    1.0000 </r>
       <r>    6.5256    1.0000 </r>
       <r>    8.1116    1.0109 </r>
       <r>    8.3454   -0.0302 </r>
       <r>   11.7435    0.0000 </r>
       <r>   12.2754    0.0000 </r>
       <r>   14.9916    0.0000 </r>
       <r>   15.6734    0.0000 </r>
       <r>   16.8741    0.0000 </r>
       <r>   18.5181    0.0000 </r>
      </set>
      <set comment="kpoint 34">
       <r>  -26.3736    1.0000 </r>
       <r>  -26.1220    1.0000 </r>
       <r>  -24.8639    1.0000 </r>
       <r>  -24.4335    1.0000 </r>
       <r>  -24.0236    1.0000 </r>
       <r>  -23.7418    1.0000 </r>
       <r>    2.8370    1.0000 </r>
       <r>    3.3789    1.0000 </r>
       <r>    5.8998    1.0000 </r>
       <r>    6.5145    1.0000 </r>
       <r>    8.4937   -0.0001 </r>
       <r>    9.1433   -0.0000 </r>
       <r>   11.5443    0.0000 </r>
       <r>   13.3866    0.0000 </r>
       <r>   14.2229    0.0000 </r>
       <r>   16.7851    0.0000 </r>
       <r>   16.9101    0.0000 </r>
       <r>   20.2555    0.0000 </r>
      </set>
      <set comment="kpoint 35">
       <r>  -26.4133    1.0000 </r>
       <r>  -26.3280    1.0000 </r>
       <r>  -24.7064    1.0000 </r>
       <r>  -24.5572    1.0000 </r>
       <r>  -23.8763    1.0000 </r>
       <r>  -23.7804    1.0000 </r>
       <r>    2.8028    1.0000 </r>
       <r>    2.9833    1.0000 </r>
       <r>    5.7994    1.0000 </r>
       <r>    6.0231    1.0000 </r>
       <r>    9.5376   -0.0000 </r>
       <r>    9.8145   -0.0000 </r>
       <r>   12.4529    0.0000 </r>
       <r>   13.2521    0.0000 </r>
       <r>   14.8445    0.0000 </r>
       <r>   15.8802    0.0000 </r>
       <r>   18.2749    0.0000 </r>
       <r>   19.4737    0.0000 </r>
      </set>
      <set comment="kpoint 36">
       <r>  -26.5101    1.0000 </r>
       <r>  -26.4813    1.0000 </r>
       <r>  -24.6355    1.0000 </r>
       <r>  -24.5837    1.0000 </r>
       <r>  -23.7856    1.0000 </r>
       <r>  -23.7530    1.0000 </r>
       <r>    2.5749    1.0000 </r>
       <r>    2.6341    1.0000 </r>
       <r>    5.5395    1.0000 </r>
       <r>    5.6217    1.0000 </r>
       <r>   10.9045   -0.0000 </r>
       <r>   11.0603    0.0000 </r>
       <r>   13.1820    0.0000 </r>
       <r>   13.6034    0.0000 </r>
       <r>   14.7702    0.0000 </r>
       <r>   15.3132    0.0000 </r>
       <r>   19.3551    0.0000 </r>
       <r>   19.8149    0.0000 </r>
      </set>
      <set comment="kpoint 37">
       <r>  -25.7382    1.0000 </r>
       <r>  -25.7382    1.0000 </r>
       <r>  -25.0007    1.0000 </r>
       <r>  -24.6735    1.0000 </r>
       <r>  -23.8394    1.0000 </r>
       <r>  -23.8394    1.0000 </r>
       <r>    2.0476    1.0000 </r>
       <r>    4.3067    1.0000 </r>
       <r>    4.3067    1.0000 </r>
       <r>    7.1887    1.0000 </r>
       <r>    7.1887    1.0000 </r>
       <r>    8.4782   -0.0003 </r>
       <r>   12.6356    0.0000 </r>
       <r>   12.9284    0.0000 </r>
       <r>   12.9284    0.0000 </r>
       <r>   14.9930    0.0000 </r>
       <r>   14.9930    0.0000 </r>
       <r>   22.2683    0.0000 </r>
      </set>
      <set comment="kpoint 38">
       <r>  -25.9259    1.0000 </r>
       <r>  -25.5331    1.0000 </r>
       <r>  -25.3311    1.0000 </r>
       <r>  -24.4457    1.0000 </r>
       <r>  -24.0538    1.0000 </r>
       <r>  -23.8265    1.0000 </r>
       <r>    2.8282    1.0000 </r>
       <r>    4.7121    1.0000 </r>
       <r>    5.1747    1.0000 </r>
       <r>    6.8549    1.0000 </r>
       <r>    6.9178    1.0000 </r>
       <r>    7.4215    1.0000 </r>
       <r>   12.4398    0.0000 </r>
       <r>   13.4800    0.0000 </r>
       <r>   13.7446    0.0000 </r>
       <r>   13.9425    0.0000 </r>
       <r>   15.3183    0.0000 </r>
       <r>   22.2827    0.0000 </r>
      </set>
      <set comment="kpoint 39">
       <r>  -26.0266    1.0000 </r>
       <r>  -25.6437    1.0000 </r>
       <r>  -25.2674    1.0000 </r>
       <r>  -24.3282    1.0000 </r>
       <r>  -24.2442    1.0000 </r>
       <r>  -23.8622    1.0000 </r>
       <r>    3.5038    1.0000 </r>
       <r>    5.1582    1.0000 </r>
       <r>    5.2093    1.0000 </r>
       <r>    6.5235    1.0000 </r>
       <r>    7.1892    1.0000 </r>
       <r>    7.5786    1.0000 </r>
       <r>   11.9068    0.0000 </r>
       <r>   12.3643    0.0000 </r>
       <r>   14.5850    0.0000 </r>
       <r>   14.8999    0.0000 </r>
       <r>   15.2730    0.0000 </r>
       <r>   20.7075    0.0000 </r>
      </set>
      <set comment="kpoint 40">
       <r>  -26.0151    1.0000 </r>
       <r>  -25.8833    1.0000 </r>
       <r>  -24.9614    1.0000 </r>
       <r>  -24.6395    1.0000 </r>
       <r>  -24.0757    1.0000 </r>
       <r>  -23.9464    1.0000 </r>
       <r>    4.0209    1.0000 </r>
       <r>    4.5601    1.0000 </r>
       <r>    5.7193    1.0000 </r>
       <r>    6.1626    1.0000 </r>
       <r>    7.7889    1.0000 </r>
       <r>    8.0506    1.0273 </r>
       <r>   11.5957    0.0000 </r>
       <r>   11.7231    0.0000 </r>
       <r>   14.6652    0.0000 </r>
       <r>   14.8191    0.0000 </r>
       <r>   16.8901    0.0000 </r>
       <r>   18.7580    0.0000 </r>
      </set>
      <set comment="kpoint 41">
       <r>  -25.9953    1.0000 </r>
       <r>  -25.6074    1.0000 </r>
       <r>  -25.4960    1.0000 </r>
       <r>  -24.2431    1.0000 </r>
       <r>  -24.1593    1.0000 </r>
       <r>  -23.8785    1.0000 </r>
       <r>    3.4339    1.0000 </r>
       <r>    4.8871    1.0000 </r>
       <r>    6.1231    1.0000 </r>
       <r>    6.3935    1.0000 </r>
       <r>    6.5125    1.0000 </r>
       <r>    6.8573    1.0000 </r>
       <r>   13.0399    0.0000 </r>
       <r>   13.0423    0.0000 </r>
       <r>   13.7193    0.0000 </r>
       <r>   15.4118    0.0000 </r>
       <r>   15.4892    0.0000 </r>
       <r>   22.2828    0.0000 </r>
      </set>
      <set comment="kpoint 42">
       <r>  -26.1095    1.0000 </r>
       <r>  -25.8676    1.0000 </r>
       <r>  -25.2719    1.0000 </r>
       <r>  -24.3892    1.0000 </r>
       <r>  -24.0869    1.0000 </r>
       <r>  -23.8901    1.0000 </r>
       <r>    3.7385    1.0000 </r>
       <r>    4.5285    1.0000 </r>
       <r>    6.1264    1.0000 </r>
       <r>    6.1750    1.0000 </r>
       <r>    7.3264    1.0000 </r>
       <r>    7.4228    1.0000 </r>
       <r>   12.4714    0.0000 </r>
       <r>   12.8574    0.0000 </r>
       <r>   14.4009    0.0000 </r>
       <r>   15.3475    0.0000 </r>
       <r>   16.8496    0.0000 </r>
       <r>   21.9433    0.0000 </r>
      </set>
      <set comment="kpoint 43">
       <r>  -26.1394    1.0000 </r>
       <r>  -26.0561    1.0000 </r>
       <r>  -24.9837    1.0000 </r>
       <r>  -24.6777    1.0000 </r>
       <r>  -23.9790    1.0000 </r>
       <r>  -23.9164    1.0000 </r>
       <r>    3.8684    1.0000 </r>
       <r>    4.1092    1.0000 </r>
       <r>    6.1012    1.0000 </r>
       <r>    6.1097    1.0000 </r>
       <r>    7.9869    1.0049 </r>
       <r>    8.1364    0.9409 </r>
       <r>   12.3991    0.0000 </r>
       <r>   12.5700    0.0000 </r>
       <r>   14.8568    0.0000 </r>
       <r>   14.9752    0.0000 </r>
       <r>   18.3072    0.0000 </r>
       <r>   20.0552    0.0000 </r>
      </set>
      <set comment="kpoint 44">
       <r>  -26.2223    1.0000 </r>
       <r>  -26.0810    1.0000 </r>
       <r>  -25.1245    1.0000 </r>
       <r>  -24.5031    1.0000 </r>
       <r>  -23.9873    1.0000 </r>
       <r>  -23.9148    1.0000 </r>
       <r>    3.6780    1.0000 </r>
       <r>    3.9757    1.0000 </r>
       <r>    5.8499    1.0000 </r>
       <r>    6.2326    1.0000 </r>
       <r>    8.2396    0.2007 </r>
       <r>    8.2819    0.0084 </r>
       <r>   12.5583    0.0000 </r>
       <r>   13.5597    0.0000 </r>
       <r>   14.3775    0.0000 </r>
       <r>   15.6380    0.0000 </r>
       <r>   18.3361    0.0000 </r>
       <r>   21.9167    0.0000 </r>
      </set>
      <set comment="kpoint 45">
       <r>  -26.2749    1.0000 </r>
       <r>  -26.2274    1.0000 </r>
       <r>  -24.9088    1.0000 </r>
       <r>  -24.6859    1.0000 </r>
       <r>  -23.9389    1.0000 </r>
       <r>  -23.9238    1.0000 </r>
       <r>    3.5831    1.0000 </r>
       <r>    3.6553    1.0000 </r>
       <r>    5.7868    1.0000 </r>
       <r>    5.9636    1.0000 </r>
       <r>    9.0910   -0.0000 </r>
       <r>    9.1321   -0.0000 </r>
       <r>   13.0285    0.0000 </r>
       <r>   13.4756    0.0000 </r>
       <r>   14.8133    0.0000 </r>
       <r>   15.2611    0.0000 </r>
       <r>   19.5822    0.0000 </r>
       <r>   20.8301    0.0000 </r>
      </set>
      <set comment="kpoint 46">
       <r>  -26.3532    1.0000 </r>
       <r>  -26.3374    1.0000 </r>
       <r>  -24.8007    1.0000 </r>
       <r>  -24.7178    1.0000 </r>
       <r>  -23.9364    1.0000 </r>
       <r>  -23.9354    1.0000 </r>
       <r>    3.4079    1.0000 </r>
       <r>    3.4196    1.0000 </r>
       <r>    5.5772    1.0000 </r>
       <r>    5.6603    1.0000 </r>
       <r>   10.1523   -0.0000 </r>
       <r>   10.1636   -0.0000 </r>
       <r>   13.5939    0.0000 </r>
       <r>   13.8498    0.0000 </r>
       <r>   14.8528    0.0000 </r>
       <r>   15.1036    0.0000 </r>
       <r>   20.4721    0.0000 </r>
       <r>   20.9474    0.0000 </r>
      </set>
      <set comment="kpoint 47">
       <r>  -25.7795    1.0000 </r>
       <r>  -25.7705    1.0000 </r>
       <r>  -25.7705    1.0000 </r>
       <r>  -24.1220    1.0000 </r>
       <r>  -24.1220    1.0000 </r>
       <r>  -24.0977    1.0000 </r>
       <r>    4.3724    1.0000 </r>
       <r>    5.3578    1.0000 </r>
       <r>    6.2166    1.0000 </r>
       <r>    6.2166    1.0000 </r>
       <r>    6.2198    1.0000 </r>
       <r>    6.2198    1.0000 </r>
       <r>   13.6786    0.0000 </r>
       <r>   13.6786    0.0000 </r>
       <r>   14.2596    0.0000 </r>
       <r>   14.2596    0.0000 </r>
       <r>   17.0073    0.0000 </r>
       <r>   21.5446    0.0000 </r>
      </set>
      <set comment="kpoint 48">
       <r>  -25.9719    1.0000 </r>
       <r>  -25.9474    1.0000 </r>
       <r>  -25.4780    1.0000 </r>
       <r>  -24.4318    1.0000 </r>
       <r>  -24.0691    1.0000 </r>
       <r>  -24.0170    1.0000 </r>
       <r>    4.6289    1.0000 </r>
       <r>    4.7284    1.0000 </r>
       <r>    6.1375    1.0000 </r>
       <r>    6.2588    1.0000 </r>
       <r>    6.6279    1.0000 </r>
       <r>    7.3814    1.0000 </r>
       <r>   13.4806    0.0000 </r>
       <r>   13.4909    0.0000 </r>
       <r>   14.4106    0.0000 </r>
       <r>   14.7115    0.0000 </r>
       <r>   18.5007    0.0000 </r>
       <r>   21.8263    0.0000 </r>
      </set>
      <set comment="kpoint 49">
       <r>  -26.0703    1.0000 </r>
       <r>  -26.0571    1.0000 </r>
       <r>  -25.1394    1.0000 </r>
       <r>  -24.7809    1.0000 </r>
       <r>  -24.0196    1.0000 </r>
       <r>  -23.9956    1.0000 </r>
       <r>    4.4055    1.0000 </r>
       <r>    4.4146    1.0000 </r>
       <r>    6.1570    1.0000 </r>
       <r>    6.2244    1.0000 </r>
       <r>    7.6090    1.0000 </r>
       <r>    8.0036    1.0086 </r>
       <r>   13.1894    0.0000 </r>
       <r>   13.2498    0.0000 </r>
       <r>   14.7906    0.0000 </r>
       <r>   14.8338    0.0000 </r>
       <r>   19.8165    0.0000 </r>
       <r>   21.3618    0.0000 </r>
      </set>
      <set comment="kpoint 50">
       <r>  -26.0358    1.0000 </r>
       <r>  -25.9809    1.0000 </r>
       <r>  -25.4139    1.0000 </r>
       <r>  -24.5518    1.0000 </r>
       <r>  -24.1847    1.0000 </r>
       <r>  -24.0179    1.0000 </r>
       <r>    4.4735    1.0000 </r>
       <r>    4.9183    1.0000 </r>
       <r>    5.8661    1.0000 </r>
       <r>    6.5098    1.0000 </r>
       <r>    7.1944    1.0000 </r>
       <r>    7.8987    1.0001 </r>
       <r>   13.6777    0.0000 </r>
       <r>   14.0010    0.0000 </r>
       <r>   14.5098    0.0000 </r>
       <r>   14.8776    0.0000 </r>
       <r>   19.9946    0.0000 </r>
       <r>   21.4013    0.0000 </r>
      </set>
      <set comment="kpoint 51">
       <r>  -26.0869    1.0000 </r>
       <r>  -26.0656    1.0000 </r>
       <r>  -25.1414    1.0000 </r>
       <r>  -24.8249    1.0000 </r>
       <r>  -24.1503    1.0000 </r>
       <r>  -24.0735    1.0000 </r>
       <r>    4.4107    1.0000 </r>
       <r>    4.6181    1.0000 </r>
       <r>    5.9569    1.0000 </r>
       <r>    6.2465    1.0000 </r>
       <r>    8.1636    0.7956 </r>
       <r>    8.4795   -0.0003 </r>
       <r>   13.7899    0.0000 </r>
       <r>   13.9609    0.0000 </r>
       <r>   14.8532    0.0000 </r>
       <r>   14.9412    0.0000 </r>
       <r>   21.0733    0.0000 </r>
       <r>   21.7968    0.0000 </r>
      </set>
      <set comment="kpoint 52">
       <r>  -26.1138    1.0000 </r>
       <r>  -26.1026    1.0000 </r>
       <r>  -25.0135    1.0000 </r>
       <r>  -24.8803    1.0000 </r>
       <r>  -24.2219    1.0000 </r>
       <r>  -24.1743    1.0000 </r>
       <r>    4.4850    1.0000 </r>
       <r>    4.6216    1.0000 </r>
       <r>    5.7167    1.0000 </r>
       <r>    5.8939    1.0000 </r>
       <r>    9.0482   -0.0000 </r>
       <r>    9.1780   -0.0000 </r>
       <r>   14.1609    0.0000 </r>
       <r>   14.2779    0.0000 </r>
       <r>   14.9524    0.0000 </r>
       <r>   15.0233    0.0000 </r>
       <r>   21.6276    0.0000 </r>
       <r>   21.7430    0.0000 </r>
      </set>
      <set comment="kpoint 53">
       <r>  -25.9980    1.0000 </r>
       <r>  -25.6657    1.0000 </r>
       <r>  -25.6657    1.0000 </r>
       <r>  -24.5262    1.0000 </r>
       <r>  -24.5262    1.0000 </r>
       <r>  -24.1200    1.0000 </r>
       <r>    4.6626    1.0000 </r>
       <r>    6.0220    1.0000 </r>
       <r>    6.0220    1.0000 </r>
       <r>    6.5379    1.0000 </r>
       <r>    7.3784    1.0000 </r>
       <r>    7.3784    1.0000 </r>
       <r>   14.5187    0.0000 </r>
       <r>   14.5187    0.0000 </r>
       <r>   14.5493    0.0000 </r>
       <r>   14.5493    0.0000 </r>
       <r>   20.6127    0.0000 </r>
       <r>   21.5016    0.0000 </r>
      </set>
      <set comment="kpoint 54">
       <r>  -25.9474    1.0000 </r>
       <r>  -25.8450    1.0000 </r>
       <r>  -25.2990    1.0000 </r>
       <r>  -24.9086    1.0000 </r>
       <r>  -24.4194    1.0000 </r>
       <r>  -24.2677    1.0000 </r>
       <r>    4.9202    1.0000 </r>
       <r>    5.4120    1.0000 </r>
       <r>    6.3483    1.0000 </r>
       <r>    6.8244    1.0000 </r>
       <r>    7.5605    1.0000 </r>
       <r>    7.9425    1.0008 </r>
       <r>   14.4461    0.0000 </r>
       <r>   14.5015    0.0000 </r>
       <r>   14.9003    0.0000 </r>
       <r>   14.9173    0.0000 </r>
       <r>   20.7337    0.0000 </r>
       <r>   21.6968    0.0000 </r>
      </set>
      <set comment="kpoint 55">
       <r>  -25.8411    1.0000 </r>
       <r>  -25.7746    1.0000 </r>
       <r>  -25.2186    1.0000 </r>
       <r>  -24.9981    1.0000 </r>
       <r>  -24.5820    1.0000 </r>
       <r>  -24.4742    1.0000 </r>
       <r>    5.3820    1.0000 </r>
       <r>    5.9053    1.0000 </r>
       <r>    6.0233    1.0000 </r>
       <r>    6.5502    1.0000 </r>
       <r>    8.0091    1.0102 </r>
       <r>    8.1640    0.7928 </r>
       <r>   14.7228    0.0000 </r>
       <r>   14.7578    0.0000 </r>
       <r>   15.0349    0.0000 </r>
       <r>   15.0357    0.0000 </r>
       <r>   20.2170    0.0000 </r>
       <r>   20.6044    0.0000 </r>
      </set>
      <set comment="kpoint 56">
       <r>  -25.5810    1.0000 </r>
       <r>  -25.3922    1.0000 </r>
       <r>  -25.3922    1.0000 </r>
       <r>  -24.9836    1.0000 </r>
       <r>  -24.9836    1.0000 </r>
       <r>  -24.7796    1.0000 </r>
       <r>    6.0301    1.0000 </r>
       <r>    6.5355    1.0000 </r>
       <r>    6.5355    1.0000 </r>
       <r>    7.2589    1.0000 </r>
       <r>    7.2589    1.0000 </r>
       <r>    7.4088    1.0000 </r>
       <r>   15.0696    0.0000 </r>
       <r>   15.0696    0.0000 </r>
       <r>   15.0760    0.0000 </r>
       <r>   15.0760    0.0000 </r>
       <r>   19.4266    0.0000 </r>
       <r>   19.5772    0.0000 </r>
      </set>
     </set>
    </set>
   </array>
  </eigenvalues>
  <separator name="orbital magnetization" >
   <v name="MAGDIPOLOUT">      0.00000000      0.00000000      0.00000000</v>
  </separator>
  <dos>
   <i name="efermi">      8.20133250 </i>
   <total>
    <array>
     <dimension dim="1">gridpoints</dimension>
     <dimension dim="2">spin</dimension>
     <field>energy</field>
     <field>total</field>
     <field>integrated</field>
     <set>
      <set comment="spin 1">
       <r>   -29.0058     0.0000     0.0000 </r>
       <r>   -28.8267     0.0000     0.0000 </r>
       <r>   -28.6476     0.0000     0.0000 </r>
       <r>   -28.4685     0.0000     0.0000 </r>
       <r>   -28.2894     0.0000     0.0000 </r>
       <r>   -28.1103     0.0000     0.0000 </r>
       <r>   -27.9312     0.0000     0.0000 </r>
       <r>   -27.7521     0.0000     0.0000 </r>
       <r>   -27.5730     0.0000     0.0000 </r>
       <r>   -27.3939    -0.0000    -0.0000 </r>
       <r>   -27.2148    -0.0000    -0.0000 </r>
       <r>   -27.0357    -0.0000    -0.0000 </r>
       <r>   -26.8566    -0.0000    -0.0000 </r>
       <r>   -26.6775    -0.0134    -0.0024 </r>
       <r>   -26.4984     0.3866     0.0668 </r>
       <r>   -26.3193     1.8700     0.4017 </r>
       <r>   -26.1402     3.2496     0.9838 </r>
       <r>   -25.9611     5.9840     2.0555 </r>
       <r>   -25.7820     4.0021     2.7723 </r>
       <r>   -25.6028     2.5801     3.2344 </r>
       <r>   -25.4237     2.7888     3.7339 </r>
       <r>   -25.2446     2.8456     4.2435 </r>
       <r>   -25.0655     3.3761     4.8482 </r>
       <r>   -24.8864     3.8299     5.5342 </r>
       <r>   -24.7073     4.4119     6.3243 </r>
       <r>   -24.5282     5.0153     7.2226 </r>
       <r>   -24.3491     4.4304     8.0161 </r>
       <r>   -24.1700     4.5316     8.8277 </r>
       <r>   -23.9909     6.0249     9.9068 </r>
       <r>   -23.8118     7.0506    11.1696 </r>
       <r>   -23.6327     4.5595    11.9862 </r>
       <r>   -23.4536     0.0818    12.0009 </r>
       <r>   -23.2745    -0.0048    12.0000 </r>
       <r>   -23.0954    -0.0000    12.0000 </r>
       <r>   -22.9163    -0.0000    12.0000 </r>
       <r>   -22.7372     0.0000    12.0000 </r>
       <r>   -22.5581     0.0000    12.0000 </r>
       <r>   -22.3790     0.0000    12.0000 </r>
       <r>   -22.1999     0.0000    12.0000 </r>
       <r>   -22.0208     0.0000    12.0000 </r>
       <r>   -21.8417     0.0000    12.0000 </r>
       <r>   -21.6626     0.0000    12.0000 </r>
       <r>   -21.4835     0.0000    12.0000 </r>
       <r>   -21.3044     0.0000    12.0000 </r>
       <r>   -21.1253     0.0000    12.0000 </r>
       <r>   -20.9462     0.0000    12.0000 </r>
       <r>   -20.7671     0.0000    12.0000 </r>
       <r>   -20.5880     0.0000    12.0000 </r>
       <r>   -20.4089     0.0000    12.0000 </r>
       <r>   -20.2298     0.0000    12.0000 </r>
       <r>   -20.0507     0.0000    12.0000 </r>
       <r>   -19.8715     0.0000    12.0000 </r>
       <r>   -19.6924     0.0000    12.0000 </r>
       <r>   -19.5133     0.0000    12.0000 </r>
       <r>   -19.3342     0.0000    12.0000 </r>
       <r>   -19.1551     0.0000    12.0000 </r>
       <r>   -18.9760     0.0000    12.0000 </r>
       <r>   -18.7969     0.0000    12.0000 </r>
       <r>   -18.6178     0.0000    12.0000 </r>
       <r>   -18.4387     0.0000    12.0000 </r>
       <r>   -18.2596     0.0000    12.0000 </r>
       <r>   -18.0805     0.0000    12.0000 </r>
       <r>   -17.9014     0.0000    12.0000 </r>
       <r>   -17.7223     0.0000    12.0000 </r>
       <r>   -17.5432     0.0000    12.0000 </r>
       <r>   -17.3641     0.0000    12.0000 </r>
       <r>   -17.1850     0.0000    12.0000 </r>
       <r>   -17.0059     0.0000    12.0000 </r>
       <r>   -16.8268     0.0000    12.0000 </r>
       <r>   -16.6477     0.0000    12.0000 </r>
       <r>   -16.4686     0.0000    12.0000 </r>
       <r>   -16.2895     0.0000    12.0000 </r>
       <r>   -16.1104     0.0000    12.0000 </r>
       <r>   -15.9313     0.0000    12.0000 </r>
       <r>   -15.7522     0.0000    12.0000 </r>
       <r>   -15.5731     0.0000    12.0000 </r>
       <r>   -15.3940     0.0000    12.0000 </r>
       <r>   -15.2149     0.0000    12.0000 </r>
       <r>   -15.0358     0.0000    12.0000 </r>
       <r>   -14.8567     0.0000    12.0000 </r>
       <r>   -14.6776     0.0000    12.0000 </r>
       <r>   -14.4985     0.0000    12.0000 </r>
       <r>   -14.3193     0.0000    12.0000 </r>
       <r>   -14.1402     0.0000    12.0000 </r>
       <r>   -13.9611     0.0000    12.0000 </r>
       <r>   -13.7820     0.0000    12.0000 </r>
       <r>   -13.6029     0.0000    12.0000 </r>
       <r>   -13.4238     0.0000    12.0000 </r>
       <r>   -13.2447     0.0000    12.0000 </r>
       <r>   -13.0656     0.0000    12.0000 </r>
       <r>   -12.8865     0.0000    12.0000 </r>
       <r>   -12.7074     0.0000    12.0000 </r>
       <r>   -12.5283     0.0000    12.0000 </r>
       <r>   -12.3492     0.0000    12.0000 </r>
       <r>   -12.1701     0.0000    12.0000 </r>
       <r>   -11.9910     0.0000    12.0000 </r>
       <r>   -11.8119     0.0000    12.0000 </r>
       <r>   -11.6328     0.0000    12.0000 </r>
       <r>   -11.4537     0.0000    12.0000 </r>
       <r>   -11.2746     0.0000    12.0000 </r>
       <r>   -11.0955     0.0000    12.0000 </r>
       <r>   -10.9164     0.0000    12.0000 </r>
       <r>   -10.7373     0.0000    12.0000 </r>
       <r>   -10.5582     0.0000    12.0000 </r>
       <r>   -10.3791     0.0000    12.0000 </r>
       <r>   -10.2000     0.0000    12.0000 </r>
       <r>   -10.0209     0.0000    12.0000 </r>
       <r>    -9.8418     0.0000    12.0000 </r>
       <r>    -9.6627     0.0000    12.0000 </r>
       <r>    -9.4836     0.0000    12.0000 </r>
       <r>    -9.3045     0.0000    12.0000 </r>
       <r>    -9.1254     0.0000    12.0000 </r>
       <r>    -8.9463     0.0000    12.0000 </r>
       <r>    -8.7672     0.0000    12.0000 </r>
       <r>    -8.5880     0.0000    12.0000 </r>
       <r>    -8.4089     0.0000    12.0000 </r>
       <r>    -8.2298     0.0000    12.0000 </r>
       <r>    -8.0507     0.0000    12.0000 </r>
       <r>    -7.8716     0.0000    12.0000 </r>
       <r>    -7.6925     0.0000    12.0000 </r>
       <r>    -7.5134     0.0000    12.0000 </r>
       <r>    -7.3343     0.0000    12.0000 </r>
       <r>    -7.1552     0.0000    12.0000 </r>
       <r>    -6.9761     0.0000    12.0000 </r>
       <r>    -6.7970     0.0000    12.0000 </r>
       <r>    -6.6179     0.0000    12.0000 </r>
       <r>    -6.4388     0.0000    12.0000 </r>
       <r>    -6.2597     0.0000    12.0000 </r>
       <r>    -6.0806     0.0000    12.0000 </r>
       <r>    -5.9015     0.0000    12.0000 </r>
       <r>    -5.7224     0.0000    12.0000 </r>
       <r>    -5.5433     0.0000    12.0000 </r>
       <r>    -5.3642     0.0000    12.0000 </r>
       <r>    -5.1851     0.0000    12.0000 </r>
       <r>    -5.0060     0.0000    12.0000 </r>
       <r>    -4.8269     0.0000    12.0000 </r>
       <r>    -4.6478     0.0000    12.0000 </r>
       <r>    -4.4687     0.0000    12.0000 </r>
       <r>    -4.2896     0.0000    12.0000 </r>
       <r>    -4.1105     0.0000    12.0000 </r>
       <r>    -3.9314     0.0000    12.0000 </r>
       <r>    -3.7523     0.0000    12.0000 </r>
       <r>    -3.5732     0.0000    12.0000 </r>
       <r>    -3.3941     0.0000    12.0000 </r>
       <r>    -3.2150     0.0000    12.0000 </r>
       <r>    -3.0358     0.0000    12.0000 </r>
       <r>    -2.8567     0.0000    12.0000 </r>
       <r>    -2.6776     0.0000    12.0000 </r>
       <r>    -2.4985     0.0000    12.0000 </r>
       <r>    -2.3194     0.0000    12.0000 </r>
       <r>    -2.1403     0.0000    12.0000 </r>
       <r>    -1.9612     0.0000    12.0000 </r>
       <r>    -1.7821     0.0000    12.0000 </r>
       <r>    -1.6030    -0.0000    12.0000 </r>
       <r>    -1.4239    -0.0000    12.0000 </r>
       <r>    -1.2448    -0.0000    12.0000 </r>
       <r>    -1.0657    -0.0000    12.0000 </r>
       <r>    -0.8866    -0.0001    12.0000 </r>
       <r>    -0.7075     0.0026    12.0005 </r>
       <r>    -0.5284     0.0043    12.0012 </r>
       <r>    -0.3493     0.0459    12.0094 </r>
       <r>    -0.1702     0.0306    12.0149 </r>
       <r>     0.0089     0.0769    12.0287 </r>
       <r>     0.1880     0.0635    12.0401 </r>
       <r>     0.3671     0.0187    12.0434 </r>
       <r>     0.5462     0.0496    12.0523 </r>
       <r>     0.7253     0.1872    12.0858 </r>
       <r>     0.9044     0.1946    12.1207 </r>
       <r>     1.0835     0.0025    12.1211 </r>
       <r>     1.2626     0.0884    12.1370 </r>
       <r>     1.4417     0.1211    12.1586 </r>
       <r>     1.6208     0.1457    12.1847 </r>
       <r>     1.7999     0.2183    12.2238 </r>
       <r>     1.9790     0.2069    12.2609 </r>
       <r>     2.1581     0.2434    12.3045 </r>
       <r>     2.3372     0.5736    12.4072 </r>
       <r>     2.5163     0.4486    12.4876 </r>
       <r>     2.6955     0.9254    12.6533 </r>
       <r>     2.8746     1.4126    12.9063 </r>
       <r>     3.0537     1.7703    13.2234 </r>
       <r>     3.2328     0.9173    13.3877 </r>
       <r>     3.4119     1.2552    13.6125 </r>
       <r>     3.5910     1.6655    13.9108 </r>
       <r>     3.7701     2.1437    14.2947 </r>
       <r>     3.9492     1.3667    14.5395 </r>
       <r>     4.1283     2.1251    14.9201 </r>
       <r>     4.3074     0.9535    15.0909 </r>
       <r>     4.4865     2.3557    15.5128 </r>
       <r>     4.6656     1.5842    15.7966 </r>
       <r>     4.8447     0.8059    15.9409 </r>
       <r>     5.0238     1.5591    16.2202 </r>
       <r>     5.2029     0.6615    16.3386 </r>
       <r>     5.3820     0.4604    16.4211 </r>
       <r>     5.5611     0.8822    16.5791 </r>
       <r>     5.7402     1.5724    16.8607 </r>
       <r>     5.9193     2.1666    17.2488 </r>
       <r>     6.0984     3.1031    17.8046 </r>
       <r>     6.2775     3.2337    18.3837 </r>
       <r>     6.4566     1.8603    18.7169 </r>
       <r>     6.6357     2.7033    19.2011 </r>
       <r>     6.8148     0.8950    19.3614 </r>
       <r>     6.9939     1.2691    19.5887 </r>
       <r>     7.1730     1.0076    19.7691 </r>
       <r>     7.3521     1.4868    20.0354 </r>
       <r>     7.5312     1.8018    20.3581 </r>
       <r>     7.7103     2.1017    20.7345 </r>
       <r>     7.8894     1.6833    21.0360 </r>
       <r>     8.0685     2.5656    21.4955 </r>
       <r>     8.2477     3.4103    22.1063 </r>
       <r>     8.4268     1.6040    22.3936 </r>
       <r>     8.6059     1.4215    22.6482 </r>
       <r>     8.7850     0.5459    22.7460 </r>
       <r>     8.9641     0.8348    22.8955 </r>
       <r>     9.1432     1.1013    23.0927 </r>
       <r>     9.3223     0.7146    23.2207 </r>
       <r>     9.5014     0.5397    23.3174 </r>
       <r>     9.6805     0.5110    23.4089 </r>
       <r>     9.8596     0.7190    23.5377 </r>
       <r>    10.0387     0.6795    23.6594 </r>
       <r>    10.2178     1.2663    23.8862 </r>
       <r>    10.3969     0.6822    24.0084 </r>
       <r>    10.5760     0.9126    24.1718 </r>
       <r>    10.7551     0.4304    24.2489 </r>
       <r>    10.9342     0.7725    24.3873 </r>
       <r>    11.1133     1.3155    24.6229 </r>
       <r>    11.2924     1.3941    24.8726 </r>
       <r>    11.4715     1.2121    25.0897 </r>
       <r>    11.6506     1.2452    25.3127 </r>
       <r>    11.8297     1.5529    25.5908 </r>
       <r>    12.0088     1.0356    25.7763 </r>
       <r>    12.1879     0.1693    25.8066 </r>
       <r>    12.3670     1.6723    26.1061 </r>
       <r>    12.5461     2.1840    26.4973 </r>
       <r>    12.7252     1.7953    26.8188 </r>
       <r>    12.9043     0.7071    26.9455 </r>
       <r>    13.0834     1.1435    27.1503 </r>
       <r>    13.2625     1.4954    27.4181 </r>
       <r>    13.4416     1.5775    27.7006 </r>
       <r>    13.6207     2.0428    28.0665 </r>
       <r>    13.7998     1.7981    28.3886 </r>
       <r>    13.9790     1.8556    28.7209 </r>
       <r>    14.1581     0.7804    28.8607 </r>
       <r>    14.3372     1.4114    29.1135 </r>
       <r>    14.5163     2.0882    29.4875 </r>
       <r>    14.6954     1.4824    29.7530 </r>
       <r>    14.8745     4.0583    30.4798 </r>
       <r>    15.0536     3.7252    31.1470 </r>
       <r>    15.2327     1.4500    31.4067 </r>
       <r>    15.4118     1.9959    31.7642 </r>
       <r>    15.5909     1.7011    32.0688 </r>
       <r>    15.7700     1.1653    32.2776 </r>
       <r>    15.9491     0.6669    32.3970 </r>
       <r>    16.1282     0.7152    32.5251 </r>
       <r>    16.3073     0.2344    32.5671 </r>
       <r>    16.4864     0.8142    32.7129 </r>
       <r>    16.6655     0.9994    32.8919 </r>
       <r>    16.8446     0.8957    33.0523 </r>
       <r>    17.0237     1.1211    33.2531 </r>
       <r>    17.2028     0.2411    33.2963 </r>
       <r>    17.3819     0.8614    33.4506 </r>
       <r>    17.5610     0.5468    33.5485 </r>
       <r>    17.7401     0.1732    33.5795 </r>
       <r>    17.9192     0.4009    33.6513 </r>
       <r>    18.0983     0.0716    33.6642 </r>
       <r>    18.2774     0.6428    33.7793 </r>
       <r>    18.4565     0.9886    33.9564 </r>
       <r>    18.6356     0.5715    34.0587 </r>
       <r>    18.8147     0.4325    34.1362 </r>
       <r>    18.9938     0.7500    34.2705 </r>
       <r>    19.1729     0.4590    34.3527 </r>
       <r>    19.3520     0.1645    34.3822 </r>
       <r>    19.5312     0.7228    34.5116 </r>
       <r>    19.7103     0.5235    34.6054 </r>
       <r>    19.8894     0.3692    34.6715 </r>
       <r>    20.0685     0.4792    34.7574 </r>
       <r>    20.2476     0.9496    34.9274 </r>
       <r>    20.4267     0.2411    34.9706 </r>
       <r>    20.6058     0.6639    35.0895 </r>
       <r>    20.7849     0.8307    35.2383 </r>
       <r>    20.9640     0.4898    35.3260 </r>
       <r>    21.1431     0.4526    35.4071 </r>
       <r>    21.3222     0.2576    35.4532 </r>
       <r>    21.5013     0.4153    35.5276 </r>
       <r>    21.6804     0.3297    35.5866 </r>
       <r>    21.8595     1.0666    35.7777 </r>
       <r>    22.0386     0.7911    35.9194 </r>
       <r>    22.2177     0.0126    35.9216 </r>
       <r>    22.3968     0.4537    36.0029 </r>
       <r>    22.5759    -0.0161    36.0000 </r>
       <r>    22.7550    -0.0001    36.0000 </r>
       <r>    22.9341    -0.0000    36.0000 </r>
       <r>    23.1132     0.0000    36.0000 </r>
       <r>    23.2923     0.0000    36.0000 </r>
       <r>    23.4714     0.0000    36.0000 </r>
       <r>    23.6505     0.0000    36.0000 </r>
       <r>    23.8296     0.0000    36.0000 </r>
       <r>    24.0087     0.0000    36.0000 </r>
       <r>    24.1878     0.0000    36.0000 </r>
       <r>    24.3669     0.0000    36.0000 </r>
       <r>    24.5460     0.0000    36.0000 </r>
       <r>    24.7251     0.0000    36.0000 </r>
      </set>
     </set>
    </array>
   </total>
  </dos>
 </calculation>
 <structure name="finalpos" >
  <crystal>
   <varray name="basis" >
    <v>       2.98922734       0.00000000       0.00000000 </v>
    <v>       0.00000000       2.98922734       0.00000000 </v>
    <v>       0.00000000       0.00000000       2.98922734 </v>
   </varray>
   <i name="volume">     26.71018149 </i>
   <varray name="rec_basis" >
    <v>       0.33453461      -0.00000000       0.00000000 </v>
    <v>       0.00000000       0.33453461       0.00000000 </v>
    <v>      -0.00000000      -0.00000000       0.33453461 </v>
   </varray>
  </crystal>
  <varray name="positions" >
   <v>       0.00000000       0.00000000       0.00000000 </v>
   <v>       0.50000000       0.50000000       0.50000000 </v>
  </varray>
 </structure>
</modeling>
