unknown system                          
           1
     2.989227    0.000000    0.000000
     0.000000    2.989227    0.000000
     0.000000    0.000000    2.989227
   Ta
     2
Direct configuration=     1
   0.00000000  0.00000000  0.00000000
   0.50000000  0.50000000  0.50000000
